version 2
run HStreamingChurn-0-20140327-22:57:40-4592
attr configname HStreamingChurn
attr datetime 20140327-22:57:40
attr experiment HStreamingChurn
attr inifile htopology.ini
attr iterationvars ""
attr iterationvars2 $repetition=0
attr measurement ""
attr network oversim.underlay.simpleunderlay.SimpleUnderlayNetwork
attr processid 4592
attr repetition 0
attr replication #0
attr resultdir results
attr runnumber 0
attr seedset 0

vector 1  SimpleUnderlayNetwork.globalObserver.globalStatistics  "ParetoChurn: Session Time"  ETV
vector 2  SimpleUnderlayNetwork.globalObserver.globalStatistics  "ParetoChurn: Time between creates"  ETV
vector 3  SimpleUnderlayNetwork.globalObserver.globalStatistics  "GlobalNodeList: Number of nodes"  ETV
vector 4  SimpleUnderlayNetwork.globalObserver.globalStatistics  "ParetoChurn: Time between deletes"  ETV
1	60381	144.074201019	4049.3225882539
1	311486	570.666384515	13409.189214422
1	330975	604.889275726	61.907854005359
1	341326	622.796629741	17250.020190509
1	403859	730.528348663	6831.3114360377
1	434088	783.913080109	494.21034680042
1	544833	982.671835603	1980.5944930496
1	639779	1152.464475119	8383.5975592678
1	660888	1190.452510686	3602.1912972883
1	738647	1335.724312729	616.89598518226
1	741437	1341.296647645	5586.1685705549
1	876984	1609.216285563	1257.0610428292
1	902099	1658.514508405	370.00864688889
1	917957	1689.69206605	7188.5093395891
1	952592	1756.757470136	20649.012007206
1	996025	1839.587840587	81263.548948834
1	1063619	1968.196569044	56.948733716364
1	1091867	2021.747200361	5602.3989782111
1	1154053	2140.278606529	1330.19524575
1	1286238	2391.056628117	25445.367341895
1	1327520	2468.508995681	6.0637786800093
1	1335135	2482.725548247	1317.821826465
1	1387845	2579.843779034	2201.51516898
1	1418365	2636.645023918	2375.155432725
1	1529053	2841.326132797	38.438919951126
1	1535015	2852.186271763	6304.5206924194
1	1724008	3200.545541966	5776.2941800776
1	1836766	3407.817023836	47854.744259073
1	1871411	3471.599927417	3205.7531042431
1	1962021	3639.037773799	759.61873357763
1	2043867	3788.496081173	39098.211363025
1	2101145	3892.799712545	3082.8101105754
1	2181939	4038.303971162	2341.4760636035
1	2227141	4118.952076416	785.75004468559
1	2262771	4181.906407028	4519.0564235386
1	2327243	4296.69304738	566.99548888106
1	2415471	4452.568938828	17425.771831808
1	2523403	4638.961129188	122096.30597424
1	2583392	4741.592693028	1554.2928400831
1	2588489	4750.128587266	17638.461992237
1	2677369	4901.648457763	12237.591654329
1	2737725	5005.401516639	1313.8561421567
1	2759030	5042.057519814	1723.2044443941
1	2825425	5155.416275964	291.79814377269
1	2927578	5328.734931932	538.61658186512
1	2962817	5387.954697838	1903.3778163312
1	3209784	5798.532534629	254563.36655027
1	3221019	5816.09260139	18461.65610549
1	3357505	6029.089735305	2576.2169733098
1	3532420	6300.128047075	3290.0568871846
1	3582273	6377.455434513	7244.2002848222
1	3599363	6403.88994121	497.896833642
1	3690748	6544.206681407	47306.653128966
1	3722919	6593.066599686	26924.695277356
1	3828883	6752.963194373	1778.1566645491
1	3830129	6754.73912978	245.86694766255
1	3852457	6788.227649113	669.01816428958
1	3860462	6799.993869026	164.41131391697
1	4022654	7041.136237138	3387.9572664636
1	4027781	7048.762181552	1603.5940872935
1	4079929	7126.320179271	9542.2902520993
1	4142412	7218.298771539	29534.489823367
2	60381	144.074201019	45.269925976
2	311486	570.666384515	426.592183496
2	330975	604.889275726	34.222891211
2	341326	622.796629741	17.907354015
2	403859	730.528348663	107.731718922
2	434088	783.913080109	53.384731446
2	544833	982.671835603	198.758755494
2	639779	1152.464475119	169.792639516
2	660888	1190.452510686	37.988035567
2	738647	1335.724312729	145.271802043
2	741437	1341.296647645	5.572334916
2	876984	1609.216285563	267.919637918
2	902099	1658.514508405	49.298222842
2	917957	1689.69206605	31.177557645
2	952592	1756.757470136	67.065404086
2	996025	1839.587840587	82.830370451
2	1063619	1968.196569044	128.608728457
2	1091867	2021.747200361	53.550631317
2	1154053	2140.278606529	118.531406168
2	1286238	2391.056628117	250.778021588
2	1327520	2468.508995681	77.452367564
2	1335135	2482.725548247	14.216552566
2	1387845	2579.843779034	97.118230787
2	1418365	2636.645023918	56.801244884
2	1529053	2841.326132797	204.681108879
2	1535015	2852.186271763	10.860138966
2	1724008	3200.545541966	348.359270203
2	1836766	3407.817023836	207.27148187
2	1871411	3471.599927417	63.782903581
2	1962021	3639.037773799	167.437846382
2	2043867	3788.496081173	149.458307374
2	2101145	3892.799712545	104.303631372
2	2181939	4038.303971162	145.504258617
2	2227141	4118.952076416	80.648105254
2	2262771	4181.906407028	62.954330612
2	2327243	4296.69304738	114.786640352
2	2415471	4452.568938828	155.875891448
2	2523403	4638.961129188	186.39219036
2	2583392	4741.592693028	102.63156384
2	2588489	4750.128587266	8.535894238
2	2677369	4901.648457763	151.519870497
2	2737725	5005.401516639	103.753058876
2	2759030	5042.057519814	36.656003175
2	2825425	5155.416275964	113.35875615
2	2927578	5328.734931932	173.318655968
2	2962817	5387.954697838	59.219765906
2	3209784	5798.532534629	410.577836791
2	3221019	5816.09260139	17.560066761
2	3357505	6029.089735305	212.997133915
2	3532420	6300.128047075	271.03831177
2	3582273	6377.455434513	77.327387438
2	3599363	6403.88994121	26.434506697
2	3690748	6544.206681407	140.316740197
2	3722919	6593.066599686	48.859918279
2	3828883	6752.963194373	159.896594687
2	3830129	6754.73912978	1.775935407
2	3852457	6788.227649113	33.488519333
2	3860462	6799.993869026	11.766219913
2	4022654	7041.136237138	241.142368112
2	4027781	7048.762181552	7.625944414
2	4079929	7126.320179271	77.557997719
2	4142412	7218.298771539	91.978592268
3	64194	150	102
3	95292	200	102
3	126464	250	102
3	156455	300	100
3	185351	350	99
3	214270	400	99
3	242967	450	97
3	271358	500	97
3	299728	550	96
3	328204	600	97
3	357285	650	99
3	386281	700	98
3	415272	750	98
3	443066	800	98
3	470906	850	98
3	498817	900	98
3	526735	950	98
3	554699	1000	98
3	582850	1050	98
3	610936	1100	98
3	638434	1150	97
3	666138	1200	99
3	693879	1250	97
3	720783	1300	94
3	745966	1350	95
3	771451	1400	95
3	796853	1450	94
3	822091	1500	93
3	847283	1550	92
3	872349	1600	92
3	897740	1650	93
3	923310	1700	94
3	949114	1750	94
3	975337	1800	95
3	1001601	1850	96
3	1027957	1900	95
3	1054136	1950	95
3	1080340	2000	95
3	1106707	2050	94
3	1133003	2100	94
3	1159304	2150	95
3	1185620	2200	94
3	1211924	2250	94
3	1238222	2300	94
3	1264585	2350	94
3	1291087	2400	95
3	1317658	2450	95
3	1344578	2500	96
3	1371548	2550	96
3	1398670	2600	96
3	1425585	2650	96
3	1452725	2700	95
3	1479681	2750	95
3	1506735	2800	95
3	1533800	2850	96
3	1561230	2900	95
3	1588538	2950	95
3	1615661	3000	94
3	1642657	3050	94
3	1669679	3100	94
3	1696680	3150	94
3	1723702	3200	94
3	1751125	3250	95
3	1778469	3300	95
3	1805632	3350	93
3	1832567	3400	93
3	1859693	3450	93
3	1886817	3500	93
3	1914073	3550	93
3	1941016	3600	92
3	1968116	3650	93
3	1995382	3700	93
3	2022718	3750	93
3	2050177	3800	94
3	2077729	3850	93
3	2105162	3900	94
3	2132907	3950	94
3	2160579	4000	94
3	2188440	4050	95
3	2216566	4100	95
3	2244879	4150	96
3	2273065	4200	94
3	2301090	4250	94
3	2329178	4300	95
3	2357578	4350	95
3	2385974	4400	94
3	2414001	4450	92
3	2442905	4500	93
3	2471819	4550	93
3	2500746	4600	93
3	2529810	4650	94
3	2559155	4700	94
3	2588456	4750	95
3	2618135	4800	93
3	2647386	4850	93
3	2676409	4900	92
3	2705525	4950	92
3	2734655	5000	92
3	2763783	5050	93
3	2793061	5100	93
3	2822281	5150	92
3	2851708	5200	93
3	2881227	5250	93
3	2910740	5300	93
3	2940280	5350	94
3	2970088	5400	95
3	3000216	5450	94
3	3030051	5500	94
3	3059971	5550	94
3	3089853	5600	94
3	3119707	5650	94
3	3149514	5700	94
3	3179369	5750	94
3	3210730	5800	93
3	3242899	5850	94
3	3274911	5900	93
3	3306854	5950	93
3	3338801	6000	93
3	3370902	6050	94
3	3403236	6100	94
3	3435598	6150	94
3	3467818	6200	94
3	3500025	6250	94
3	3532327	6300	92
3	3564567	6350	92
3	3596839	6400	92
3	3629430	6450	93
3	3662019	6500	93
3	3694561	6550	94
3	3727543	6600	95
3	3760753	6650	95
3	3793894	6700	94
3	3826914	6750	94
3	3860481	6800	96
3	3894404	6850	96
3	3928376	6900	96
3	3961929	6950	92
3	3995498	7000	89
3	4028609	7050	90
3	4062225	7100	90
3	4095995	7150	91
3	4129958	7200	91
3	4164177	7250	92
4	127880	252.340131552	252.340131552
4	134161	262.294315032	9.95418348
4	150201	289.171277136	26.876962104
4	226776	421.89176657	132.720489434
4	232977	432.70296378	10.81119721
4	286196	525.907154218	93.204190438
4	358326	651.797129731	125.889975513
4	399745	723.432101989	71.634972258
4	409149	739.547100444	16.114998455
4	545462	983.700897653	244.153797209
4	610222	1098.708976032	115.008078379
4	668661	1204.554411418	105.845435386
4	677436	1220.396201565	15.841790147
4	686488	1236.596721791	16.200520226
4	700947	1263.123426909	26.526705118
4	708991	1277.992371914	14.868945005
4	718000	1294.38361913	16.391247216
4	775838	1408.51362685	114.13000772
4	794738	1445.716549384	37.202922534
4	819733	1495.23889125	49.522341866
4	894990	1644.709259539	149.470368289
4	1012385	1870.530541176	225.821281637
4	1047601	1937.620297911	67.089756735
4	1085692	2010.14530276	72.525004849
4	1087524	2013.523155293	3.377852533
4	1158822	2149.183587883	135.66043259
4	1327528	2468.508995681	319.325407798
4	1388197	2580.408567577	111.899571896
4	1411116	2623.111156378	42.702588801
4	1439804	2676.324181042	53.213024664
4	1534520	2851.277328392	174.95314735
4	1542030	2864.765052748	13.487724356
4	1587624	2948.266328652	83.501275904
4	1785700	3313.278785485	365.012456833
4	1788625	3318.724648342	5.445862857
4	1850617	3433.174920393	114.450272051
4	1862639	3455.473852278	22.298931885
4	1911729	3545.762355674	90.288503396
4	2042268	3785.547374712	239.785019038
4	2239609	4140.780256408	355.232881696
4	2256877	4171.49018066	30.709924252
4	2260759	4178.396789272	6.906608612
4	2376676	4383.656507376	205.259718104
4	2378399	4386.66203551	3.005528134
4	2393966	4414.381760693	27.719725183
4	2598192	4766.358948014	351.977187321
4	2604913	4777.643807974	11.28485996
4	2605475	4778.607860599	0.964052625
4	2646620	4848.688536261	70.080675662
4	2670453	4889.702121101	41.01358484
4	2732786	4996.800456643	107.098335542
4	2791840	5097.946262939	101.145806296
4	2989521	5432.214419736	334.268156797
4	3171862	5737.3642148	305.149795064
4	3199581	5782.403273238	45.039058438
4	3244390	5852.351513797	69.948240559
4	3503559	6255.361969644	403.010455847
4	3520059	6280.885533111	25.523563467
4	3535095	6304.257658795	23.372125684
4	3574116	6364.780034765	60.52237597
4	3768952	6662.35303166	297.572996895
4	3827065	6750.261964208	87.908932548
4	3849894	6784.402796644	34.140832436
4	3918789	6885.793425732	101.390629088
4	3919452	6886.786774852	0.99334912
4	3926184	6896.693225497	9.906450645
4	3936818	6912.465218199	15.771992702
4	3961540	6949.405182942	36.939964743
4	3964001	6953.028638751	3.623455809
4	3969075	6960.60982312	7.581184369
4	3985917	6985.606077442	24.996254322
4	4182200	7276.332514169	290.726436727
