version 2
run HStreamingChurn-0-20140328-00:00:52-14300
attr configname HStreamingChurn
attr datetime 20140328-00:00:52
attr experiment HStreamingChurn
attr inifile htopology.ini
attr iterationvars ""
attr iterationvars2 $repetition=0
attr measurement ""
attr network oversim.underlay.simpleunderlay.SimpleUnderlayNetwork
attr processid 14300
attr repetition 0
attr replication #0
attr resultdir results
attr runnumber 0
attr seedset 0

vector 1  SimpleUnderlayNetwork.globalObserver.globalStatistics  "GlobalNodeList: Number of nodes"  ETV
1	3431366	1050	1001
1	3744785	1100	1001
1	4058349	1150	1001
1	4371671	1200	1001
1	4685317	1250	1001
1	4998865	1300	1001
1	5312474	1350	1001
1	5626118	1400	1001
1	5939516	1450	1001
1	6253221	1500	1001
1	6566408	1550	1001
1	6879689	1600	1001
1	7193439	1650	1001
1	7507012	1700	1001
1	7820289	1750	1001
1	8134235	1800	1001
1	8447413	1850	1001
1	8760909	1900	1001
1	9074527	1950	1001
1	9388128	2000	1001
1	9701390	2050	1001
1	10014780	2100	1001
1	10328492	2150	1001
1	10641945	2200	1001
1	10955424	2250	1001
1	11269133	2300	1001
1	11582581	2350	1001
1	11896046	2400	1001
1	12209387	2450	1001
1	12523124	2500	1001
1	12836644	2550	1001
1	13150102	2600	1001
1	13463639	2650	1001
1	13777144	2700	1001
1	14090303	2750	1001
1	14404073	2800	1001
1	14717781	2850	1001
1	15031041	2900	1001
1	15344575	2950	1001
1	15657865	3000	1001
1	15971502	3050	1001
1	16285182	3100	1001
1	16598761	3150	1001
1	16912008	3200	1001
1	17225435	3250	1001
1	17539061	3300	1001
1	17852681	3350	1001
1	18166171	3400	1001
1	18479784	3450	1001
1	18793086	3500	1001
1	19106541	3550	1001
1	19419842	3600	1001
1	19733726	3650	1001
1	20047189	3700	1001
1	20360763	3750	1001
1	20674145	3800	1001
1	20987645	3850	1001
1	21300977	3900	1001
1	21614773	3950	1001
1	21928455	4000	1001
1	22241562	4050	1001
1	22555049	4100	1001
1	22868477	4150	1001
1	23182008	4200	1001
1	23495894	4250	1001
1	23809470	4300	1001
1	24122322	4350	1001
1	24436117	4400	1001
1	24749671	4450	1001
1	25063412	4500	1001
1	25376706	4550	1001
1	25690432	4600	1001
1	26003644	4650	1001
1	26317066	4700	1001
1	26630591	4750	1001
1	26944459	4800	1001
1	27257915	4850	1001
1	27571309	4900	1001
1	27884677	4950	1001
1	28198157	5000	1001
1	28511520	5050	1001
1	28825300	5100	1001
1	29138922	5150	1001
1	29452293	5200	1001
1	29765915	5250	1001
1	30079213	5300	1001
1	30392891	5350	1001
1	30706324	5400	1001
1	31019847	5450	1001
1	31333240	5500	1001
1	31646621	5550	1001
1	31960217	5600	1001
1	32273918	5650	1001
1	32587442	5700	1001
1	32900934	5750	1001
1	33214240	5800	1001
1	33527812	5850	1001
1	33841453	5900	1001
1	34155044	5950	1001
1	34468457	6000	1001
1	34781950	6050	1001
1	35095269	6100	1001
1	35408812	6150	1001
1	35722445	6200	1001
1	36035909	6250	1001
1	36349493	6300	1001
1	36662893	6350	1001
1	36976220	6400	1001
1	37290064	6450	1001
1	37603445	6500	1001
1	37917078	6550	1001
1	38230544	6600	1001
1	38543866	6650	1001
1	38857377	6700	1001
1	39171043	6750	1001
1	39484526	6800	1001
1	39798021	6850	1001
1	40111347	6900	1001
1	40424790	6950	1001
1	40738527	7000	1001
1	41052024	7050	1001
1	41365734	7100	1001
1	41679129	7150	1001
1	41992503	7200	1001
1	42306091	7250	1001
1	42619619	7300	1001
1	42933087	7350	1001
1	43246664	7400	1001
1	43560159	7450	1001
1	43873478	7500	1001
1	44187057	7550	1001
1	44500560	7600	1001
1	44814169	7650	1001
1	45127572	7700	1001
1	45441044	7750	1001
1	45754612	7800	1001
1	46068006	7850	1001
1	46381677	7900	1001
1	46695232	7950	1001
1	47008417	8000	1001
1	47322087	8050	1001
1	47635575	8100	1001
1	47949260	8150	1001
1	48262714	8200	1001
