version 2
run HStreamingChurn-0-20140414-13:36:59-3908
attr configname HStreamingChurn
attr datetime 20140414-13:36:59
attr experiment HStreamingChurn
attr inifile htopology.ini
attr iterationvars ""
attr iterationvars2 $repetition=0
attr measurement ""
attr network oversim.underlay.simpleunderlay.SimpleUnderlayNetwork
attr processid 3908
attr repetition 0
attr replication #0
attr resultdir results
attr runnumber 0
attr seedset 0

vector 1  SimpleUnderlayNetwork.globalObserver.globalStatistics  "GlobalNodeList: Number of nodes"  ETV
1	4012639	1000	1001
1	4410273	1050	1001
1	4808020	1100	1001
1	5206721	1150	1001
1	5604360	1200	1001
1	6003040	1250	1001
1	6399750	1300	1001
1	6798370	1350	1001
1	7196470	1400	1001
1	7594141	1450	1001
1	7992564	1500	1001
1	8391124	1550	1001
1	8787809	1600	1001
1	9186636	1650	1001
1	9584672	1700	1001
1	9982586	1750	1001
1	10380870	1800	1001
1	10778634	1850	1001
1	11176239	1900	1001
1	11574720	1950	1001
1	11972246	2000	1001
1	12370501	2050	1001
1	12769094	2100	1001
1	13166660	2150	1001
1	13564397	2200	1001
1	13962834	2250	1001
1	14360960	2300	1001
1	14758819	2350	1001
1	15157127	2400	1001
1	15554207	2450	1001
1	15952789	2500	1001
1	16350935	2550	1001
1	16748806	2600	1001
1	17146818	2650	1001
1	17545039	2700	1001
1	17942209	2750	1001
1	18340694	2800	1001
1	18738684	2850	1001
1	19137011	2900	1001
1	19534995	2950	1001
1	19932380	3000	1001
1	20330596	3050	1001
1	20728853	3100	1001
1	21127162	3150	1001
1	21525303	3200	1001
1	21923387	3250	1001
1	22320625	3300	1001
1	22718400	3350	1001
1	23117130	3400	1001
1	23514997	3450	1001
1	23913005	3500	1001
1	24310718	3550	1001
1	24708736	3600	1001
1	25106968	3650	1001
1	25505449	3700	1001
1	25903716	3750	1001
1	26301064	3800	1001
1	26699249	3850	1001
1	27096737	3900	1001
1	27494951	3950	1001
1	27893251	4000	1001
1	28291765	4050	1001
1	28688838	4100	1001
1	29087257	4150	1001
1	29484858	4200	1001
1	29883473	4250	1001
1	30281841	4300	1001
1	30679031	4350	1001
1	31076698	4400	1001
1	31475043	4450	1001
1	31872471	4500	1001
1	32271553	4550	1001
1	32669978	4600	1001
1	33067141	4650	1001
1	33465741	4700	1001
1	33863566	4750	1001
1	34261540	4800	1001
1	34659962	4850	1001
1	35057309	4900	1001
1	35454638	4950	1001
1	35854256	5000	1001
1	36250874	5050	1001
1	36649593	5100	1001
1	37047905	5150	1001
1	37446180	5200	1001
1	37843032	5250	1001
1	38241437	5300	1001
1	38638868	5350	1001
1	39037741	5400	1001
1	39435564	5450	1001
1	39832825	5500	1001
1	40231748	5550	1001
1	40629162	5600	1001
1	41027236	5650	1001
1	41425961	5700	1001
1	41824364	5750	1001
1	42220617	5800	1001
1	42620384	5850	1001
1	43017275	5900	1001
1	43415828	5950	1001
1	43814485	6000	1001
1	44211973	6050	1001
1	44609230	6100	1001
1	45007716	6150	1001
1	45405395	6200	1001
1	45803882	6250	1001
1	46202303	6300	1001
1	46599130	6350	1001
1	46997795	6400	1001
1	47395823	6450	1001
1	47793631	6500	1001
1	48192308	6550	1001
1	48590128	6600	1001
1	48987214	6650	1001
1	49386776	6700	1001
1	49783827	6750	1001
1	50182051	6800	1001
1	50580709	6850	1001
1	50977743	6900	1001
1	51375658	6950	1001
1	51774345	7000	1001
1	52171958	7050	1001
1	52570313	7100	1001
1	52968752	7150	1001
1	53365574	7200	1001
1	53763978	7250	1001
1	54162534	7300	1001
1	54560291	7350	1001
1	54957787	7400	1001
1	55356174	7450	1001
1	55753753	7500	1001
1	56152215	7550	1001
1	56550497	7600	1001
1	56948419	7650	1001
1	57346665	7700	1001
1	57743950	7750	1001
1	58142157	7800	1001
1	58540151	7850	1001
1	58938410	7900	1001
1	59336064	7950	1001
1	59735325	8000	1001
1	60132061	8050	1001
1	60530403	8100	1001
1	60928655	8150	1001
