version 2
run HStreamingChurn-0-20140416-22:48:05-44
attr configname HStreamingChurn
attr datetime 20140416-22:48:05
attr experiment HStreamingChurn
attr inifile htopology.ini
attr iterationvars ""
attr iterationvars2 $repetition=0
attr measurement ""
attr network oversim.underlay.simpleunderlay.SimpleUnderlayNetwork
attr processid 44
attr repetition 0
attr replication #0
attr resultdir results
attr runnumber 0
attr seedset 0

vector 1  SimpleUnderlayNetwork.globalObserver.globalStatistics  "ParetoChurn: Session Time"  ETV
vector 2  SimpleUnderlayNetwork.globalObserver.globalStatistics  "ParetoChurn: Time between creates"  ETV
vector 3  SimpleUnderlayNetwork.globalObserver.globalStatistics  "ParetoChurn: Time between deletes"  ETV
vector 4  SimpleUnderlayNetwork.globalObserver.globalStatistics  "GlobalNodeList: Number of nodes"  ETV
1	159908	202.190275926	1253.5201295353
1	215638	237.806604647	32370.315465533
1	257205	263.829607498	1479.6429879125
1	302591	292.576329258	64.292854167941
1	342103	317.189090893	514.90986130204
1	486457	407.33884964	11603.818988331
1	580232	465.642474131	3282.7401326421
1	676516	525.31217364	1856.0643005254
1	709545	545.725680208	28003.121453485
1	757717	575.088020038	4204.2197415887
1	781033	589.336090652	1367.3719230196
1	817089	611.320026691	5207.2511821908
1	851877	632.186278511	10836.371349553
1	860934	637.722403922	140.43781697057
1	1009074	726.55750705	10087.774635198
1	1029548	738.783257863	25998.07699999
1	1071129	763.593927909	1984.6645939727
1	1247190	867.986371118	275.04907723399
1	1569395	1058.446367562	998.6277764854
1	1593432	1072.53478813	58.011169343142
1	1692433	1128.256027547	9.6900873834447
1	1748788	1159.920480762	2774.6876235656
1	1843193	1212.315000173	2895.7666177382
1	2011624	1305.335858673	9663.7456435395
1	2051263	1327.306165515	50758.624559028
1	2153614	1383.336449319	3077.9123742131
1	2155774	1384.541926756	31.191534305176
1	2351684	1494.755462383	1753.2190412458
1	2433335	1542.751453252	1915.5318451452
1	2459212	1557.86202328	55983.660705015
1	2459881	1558.19629134	56.152391929209
1	2510342	1587.726528635	32249.869811846
1	2618421	1650.687198808	37745.091332254
1	2884105	1802.149414113	3911.1723150011
1	2886839	1803.720822179	398.63459969998
1	2939098	1833.126237747	22545.407777229
1	3002469	1869.020849793	1330.7081099379
1	3115241	1932.147973419	97.040471591217
1	3203304	1981.1532295	12316.038995643
1	3311727	2041.372066591	4052.354038098
1	3313336	2042.226345372	30201.068131405
1	3334643	2054.102905616	30082.708579914
1	3348766	2061.735563695	3356.0096949579
1	3376573	2076.847104023	156.19927396356
1	3517289	2153.43491848	863.87160841512
1	3538166	2164.763801978	1051.9902390816
1	3588285	2191.81653416	112234.80428358
1	3868124	2344.816470686	1229.3733575038
1	3871339	2346.457234815	2365.0726588146
1	4133997	2489.997561506	46899.900297482
1	4250842	2553.558819572	6235.2565630338
1	4256511	2556.55151414	134.87143287858
1	4330759	2596.817655684	274.80953079368
1	4359972	2612.301801531	747.81473066529
1	4489975	2681.762040297	242.54489102061
1	4552505	2715.660091424	1603.0714696714
1	4612802	2748.095804881	824.24774819613
1	4776099	2836.053944544	79.189566252167
1	4785524	2841.088920527	2186.9600151367
1	4823192	2860.975485777	44.115618033308
1	4839374	2869.56948864	355.13356186626
1	4908098	2906.12257843	41041.237992087
1	4975463	2941.922279208	6743.7384129767
1	4999760	2954.638540965	3746.3582465345
1	5018520	2964.475741858	837.11768982087
1	5245591	3083.16309306	6666.5766434582
1	5275399	3098.665118029	1041.2140659587
1	5348439	3137.065803827	15239.445133083
1	5508830	3220.804235947	1162.7587015647
1	5530835	3232.22467649	38.93325635368
1	5559016	3247.095318251	2412.8262114464
1	5566326	3250.815160611	329.79167267021
1	5626882	3281.845917857	65.978056613126
1	5655242	3296.404235632	166.47446875701
1	5830757	3386.122805628	146.87719755517
1	5872394	3406.972124036	3965.1377845228
1	5894683	3418.332118518	2564.9648257229
1	5927183	3434.76991704	796.50269749087
1	6029738	3486.319511163	79.1279398938
1	6078853	3510.705611886	11431.235734021
1	6150427	3546.553155989	4133.8113469448
1	6180856	3561.562551997	2059.5114467849
1	6206776	3574.259214865	84.829434874063
1	6294359	3617.743990253	3930.2436976483
1	6349552	3644.787296471	1249.2512827792
1	6547998	3742.059969433	5512.6182799014
1	6570666	3752.983015641	2875.633097317
1	6612971	3773.602969126	4402.7994999546
1	6866778	3896.82095404	285.98774220911
1	6888160	3907.191353963	629.14412538986
1	6999248	3960.729632704	606.93642357005
1	7032982	3976.945510892	760.18415659387
1	7045975	3983.118575012	166.82820251287
1	7243356	4078.148111774	8265.2643616333
1	7297208	4104.121857013	38119.479037212
1	7428293	4167.09313081	3064.9953130477
1	7457173	4180.776330024	1278.8120982022
1	7593032	4245.568430847	567.6012909712
1	7752878	4321.682581644	8959.2311296631
1	7792811	4340.6882525	1046.5688646392
1	7892644	4387.722159512	357.05737656839
1	7979681	4428.388419501	309.35429607021
1	8009009	4442.316275186	8271.4697859809
1	8045460	4459.404871469	25.949179631419
1	8222975	4541.880444469	2605.2389462899
1	8267392	4562.549398051	11257.627188279
1	8381749	4615.044359477	5868.9763595981
1	8453769	4648.322272313	39572.215004535
1	8499496	4669.039644434	11.511412798725
1	8609737	4719.498334641	13261.222050246
1	8676288	4749.847856163	6004.2922183384
1	8692683	4757.379094583	7172.5591755943
1	8913252	4857.775211532	8525.5878780729
1	8940020	4870.032722053	299802.77709692
1	9321726	5042.662348459	2472.5028789869
1	9361466	5060.584911217	3518.5807529533
1	9401655	5078.930593424	389.48697465078
1	9412256	5083.612642042	8987.0739038394
1	9437881	5095.11068692	3313.5139900938
1	9536793	5139.861727488	2102.8851529547
1	9563818	5151.783697156	833.08300790374
1	9626654	5179.896140087	94.836733018433
1	10136466	5407.081069905	130.73377254
1	10140371	5408.938810279	1373.9081695714
1	10251650	5458.282510058	25355.369861138
1	10422803	5534.015598217	14737.950745576
1	11013756	5795.399845827	311.9389731089
1	11106201	5836.21421971	1358.5049346261
1	11199171	5877.913125451	27.295810472266
1	11208233	5881.97590743	3961.1061432221
1	11360553	5949.903333771	693.8106086264
1	11502094	6012.763860408	480.73748467422
1	11564846	6040.637863882	124.22851197675
1	11617813	6063.967961828	42571.117907695
1	11663961	6084.271051576	18669.294870327
1	11720648	6109.355165646	1045.057385504
1	11966237	6216.724773941	2437.0452668848
1	11986211	6225.586623703	615.55078220533
1	12019246	6239.869370332	19327.731808543
1	12146152	6294.991624294	10510.979912177
1	12314849	6367.669802329	38287.512138324
1	12404247	6406.472790883	5860.7921138723
1	12417541	6412.222660137	21958.654318786
1	12600748	6491.440946475	1586.7357415692
1	12621233	6500.28458419	12118.497939629
1	12731048	6547.559041834	6624.3073563338
1	12792105	6573.906364187	12405.305535154
1	12855958	6601.14780018	1197.5224107024
1	12907807	6623.119193473	26.213085084992
1	12936494	6635.407265966	216.8468228532
1	13159343	6729.767149187	4823.1156244822
1	13173894	6735.895367943	1365.5345928577
1	13197948	6745.97402312	74.551647704876
1	13398825	6830.274806258	2716.9504007512
1	13681134	6948.155740463	19.867346319088
1	13811450	7002.361482745	223.21103753537
1	13947473	7058.869679434	9.2698008216614
1	14005134	7082.760871382	969.43153390849
1	14439334	7263.629599248	3153.6961219233
1	14599766	7330.03045475	7086.8311256173
1	14675198	7361.291970786	2415.7584714967
1	14726163	7382.411244452	20938.12247644
2	159908	202.190275926	3.267770624
2	215638	237.806604647	35.616328721
2	257205	263.829607498	26.023002851
2	302591	292.576329258	28.74672176
2	342103	317.189090893	24.612761635
2	486457	407.33884964	90.149758747
2	580232	465.642474131	58.303624491
2	676516	525.31217364	59.669699509
2	709545	545.725680208	20.413506568
2	757717	575.088020038	29.36233983
2	781033	589.336090652	14.248070614
2	817089	611.320026691	21.983936039
2	851877	632.186278511	20.86625182
2	860934	637.722403922	5.536125411
2	1009074	726.55750705	88.835103128
2	1029548	738.783257863	12.225750813
2	1071129	763.593927909	24.810670046
2	1247190	867.986371118	104.392443209
2	1569395	1058.446367562	190.459996444
2	1593432	1072.53478813	14.088420568
2	1692433	1128.256027547	55.721239417
2	1748788	1159.920480762	31.664453215
2	1843193	1212.315000173	52.394519411
2	2011624	1305.335858673	93.0208585
2	2051263	1327.306165515	21.970306842
2	2153614	1383.336449319	56.030283804
2	2155774	1384.541926756	1.205477437
2	2351684	1494.755462383	110.213535627
2	2433335	1542.751453252	47.995990869
2	2459212	1557.86202328	15.110570028
2	2459881	1558.19629134	0.33426806
2	2510342	1587.726528635	29.530237295
2	2618421	1650.687198808	62.960670173
2	2884105	1802.149414113	151.462215305
2	2886839	1803.720822179	1.571408066
2	2939098	1833.126237747	29.405415568
2	3002469	1869.020849793	35.894612046
2	3115241	1932.147973419	63.127123626
2	3203304	1981.1532295	49.005256081
2	3311727	2041.372066591	60.218837091
2	3313336	2042.226345372	0.854278781
2	3334643	2054.102905616	11.876560244
2	3348766	2061.735563695	7.632658079
2	3376573	2076.847104023	15.111540328
2	3517289	2153.43491848	76.587814457
2	3538166	2164.763801978	11.328883498
2	3588285	2191.81653416	27.052732182
2	3868124	2344.816470686	152.999936526
2	3871339	2346.457234815	1.640764129
2	4133997	2489.997561506	143.540326691
2	4250842	2553.558819572	63.561258066
2	4256511	2556.55151414	2.992694568
2	4330759	2596.817655684	40.266141544
2	4359972	2612.301801531	15.484145847
2	4489975	2681.762040297	69.460238766
2	4552505	2715.660091424	33.898051127
2	4612802	2748.095804881	32.435713457
2	4776099	2836.053944544	87.958139663
2	4785524	2841.088920527	5.034975983
2	4823192	2860.975485777	19.88656525
2	4839374	2869.56948864	8.594002863
2	4908098	2906.12257843	36.55308979
2	4975463	2941.922279208	35.799700778
2	4999760	2954.638540965	12.716261757
2	5018520	2964.475741858	9.837200893
2	5245591	3083.16309306	118.687351202
2	5275399	3098.665118029	15.502024969
2	5348439	3137.065803827	38.400685798
2	5508830	3220.804235947	83.73843212
2	5530835	3232.22467649	11.420440543
2	5559016	3247.095318251	14.870641761
2	5566326	3250.815160611	3.71984236
2	5626882	3281.845917857	31.030757246
2	5655242	3296.404235632	14.558317775
2	5830757	3386.122805628	89.718569996
2	5872394	3406.972124036	20.849318408
2	5894683	3418.332118518	11.359994482
2	5927183	3434.76991704	16.437798522
2	6029738	3486.319511163	51.549594123
2	6078853	3510.705611886	24.386100723
2	6150427	3546.553155989	35.847544103
2	6180856	3561.562551997	15.009396008
2	6206776	3574.259214865	12.696662868
2	6294359	3617.743990253	43.484775388
2	6349552	3644.787296471	27.043306218
2	6547998	3742.059969433	97.272672962
2	6570666	3752.983015641	10.923046208
2	6612971	3773.602969126	20.619953485
2	6866778	3896.82095404	123.217984914
2	6888160	3907.191353963	10.370399923
2	6999248	3960.729632704	53.538278741
2	7032982	3976.945510892	16.215878188
2	7045975	3983.118575012	6.17306412
2	7243356	4078.148111774	95.029536762
2	7297208	4104.121857013	25.973745239
2	7428293	4167.09313081	62.971273797
2	7457173	4180.776330024	13.683199214
2	7593032	4245.568430847	64.792100823
2	7752878	4321.682581644	76.114150797
2	7792811	4340.6882525	19.005670856
2	7892644	4387.722159512	47.033907012
2	7979681	4428.388419501	40.666259989
2	8009009	4442.316275186	13.927855685
2	8045460	4459.404871469	17.088596283
2	8222975	4541.880444469	82.475573
2	8267392	4562.549398051	20.668953582
2	8381749	4615.044359477	52.494961426
2	8453769	4648.322272313	33.277912836
2	8499496	4669.039644434	20.717372121
2	8609737	4719.498334641	50.458690207
2	8676288	4749.847856163	30.349521522
2	8692683	4757.379094583	7.53123842
2	8913252	4857.775211532	100.396116949
2	8940020	4870.032722053	12.257510521
2	9321726	5042.662348459	172.629626406
2	9361466	5060.584911217	17.922562758
2	9401655	5078.930593424	18.345682207
2	9412256	5083.612642042	4.682048618
2	9437881	5095.11068692	11.498044878
2	9536793	5139.861727488	44.751040568
2	9563818	5151.783697156	11.921969668
2	9626654	5179.896140087	28.112442931
2	10136466	5407.081069905	227.184929818
2	10140371	5408.938810279	1.857740374
2	10251650	5458.282510058	49.343699779
2	10422803	5534.015598217	75.733088159
2	11013756	5795.399845827	261.38424761
2	11106201	5836.21421971	40.814373883
2	11199171	5877.913125451	41.698905741
2	11208233	5881.97590743	4.062781979
2	11360553	5949.903333771	67.927426341
2	11502094	6012.763860408	62.860526637
2	11564846	6040.637863882	27.874003474
2	11617813	6063.967961828	23.330097946
2	11663961	6084.271051576	20.303089748
2	11720648	6109.355165646	25.08411407
2	11966237	6216.724773941	107.369608295
2	11986211	6225.586623703	8.861849762
2	12019246	6239.869370332	14.282746629
2	12146152	6294.991624294	55.122253962
2	12314849	6367.669802329	72.678178035
2	12404247	6406.472790883	38.802988554
2	12417541	6412.222660137	5.749869254
2	12600748	6491.440946475	79.218286338
2	12621233	6500.28458419	8.843637715
2	12731048	6547.559041834	47.274457644
2	12792105	6573.906364187	26.347322353
2	12855958	6601.14780018	27.241435993
2	12907807	6623.119193473	21.971393293
2	12936494	6635.407265966	12.288072493
2	13159343	6729.767149187	94.359883221
2	13173894	6735.895367943	6.128218756
2	13197948	6745.97402312	10.078655177
2	13398825	6830.274806258	84.300783138
2	13681134	6948.155740463	117.880934205
2	13811450	7002.361482745	54.205742282
2	13947473	7058.869679434	56.508196689
2	14005134	7082.760871382	23.891191948
2	14439334	7263.629599248	180.868727866
2	14599766	7330.03045475	66.400855502
2	14675198	7361.291970786	31.261516036
2	14726163	7382.411244452	21.119273666
3	224678	243.512740448	49.686093505
3	272927	273.792651218	30.27991077
3	303505	293.113448839	19.320797621
3	340376	316.114034426	23.000585587
3	381708	341.869183425	25.755148999
3	401576	354.34931409	12.480130665
3	431064	372.717756828	18.368442738
3	546670	444.559753497	71.841996669
3	606497	481.92084775	37.361094253
3	607002	482.233201641	0.312353891
3	744714	567.091172131	84.85797049
3	927703	677.702039848	110.610867717
3	1070434	763.160220892	85.458181044
3	1106371	784.497756367	21.337535475
3	1161310	817.098952195	32.601195828
3	1273424	883.568049726	66.469097531
3	1378544	945.645439616	62.07738989
3	1536355	1038.851300112	93.205860496
3	1670079	1115.545957473	76.694657361
3	1682443	1122.568835258	7.022877785
3	1692039	1128.035448351	5.466613093
3	1692441	1128.256027547	0.220579196
3	2163880	1388.941259649	260.685232102
3	2185563	1400.733461061	11.792201412
3	2239436	1429.887123376	29.153662315
3	2259689	1440.710405461	10.823282085
3	2485628	1573.367804906	132.657399445
3	2491742	1576.918013648	3.550208742
3	2529954	1599.348683269	22.430669621
3	2553263	1612.979400562	13.630717293
3	2754894	1728.47259541	115.493194848
3	2831124	1771.86946303	43.39686762
3	3132559	1941.708013671	169.838550641
3	3262891	2014.18844501	72.480431339
3	3313029	2042.074144047	27.885699037
3	3397080	2088.14297272	46.068828673
3	3580088	2187.355421878	99.212449158
3	3636920	2218.046377986	30.690956108
3	3641890	2220.7431585	2.696780514
3	3648949	2224.340984597	3.597826097
3	3907891	2366.376474165	142.035489568
3	3919546	2372.886320397	6.509846232
3	4306002	2583.406395797	210.5200754
3	4411347	2639.929365815	56.522970018
3	4479897	2676.422947018	36.493581203
3	4488047	2680.843336708	4.42038969
3	4543998	2710.935686193	30.092349485
3	4585523	2733.258521881	22.322835688
3	4609097	2746.11500692	12.856485039
3	4649440	2768.197815971	22.082809051
3	4657432	2772.459332744	4.261516773
3	4814870	2856.627186477	84.167853733
3	4859748	2880.624474103	23.997287626
3	4877780	2890.09110381	9.466629707
3	4896786	2900.243510796	10.152406986
3	4914189	2909.306931317	9.063420521
3	5090848	3002.306526895	92.999595578
3	5146825	3031.349646124	29.043119229
3	5220454	3070.000748513	38.651102389
3	5439604	3184.72895973	114.728211217
3	5472075	3201.754041059	17.025081329
3	5487575	3209.703050506	7.949009447
3	5532228	3232.974503628	23.271453122
3	5576775	3256.157932843	23.183429215
3	5726657	3332.82397447	76.666041627
3	5751043	3345.116532196	12.292557726
3	5943991	3443.283298397	98.166766201
3	5953242	3447.878704389	4.595405992
3	6093618	3518.000003183	70.121298794
3	6158211	3550.447451056	32.447447873
3	6172327	3557.343553077	6.896102021
3	6176192	3559.189828189	1.846275112
3	6188914	3565.606833281	6.417005092
3	6348189	3644.088649739	78.481816458
3	6529985	3733.382606773	89.293957034
3	6639468	3786.593431678	53.210824905
3	6659577	3796.389473621	9.796041943
3	6697914	3814.810135108	18.420661487
3	6810193	3869.503762266	54.693627158
3	6913903	3919.608104327	50.104342061
3	6954805	3939.167632985	19.559528658
3	7065083	3992.294044682	53.126411697
3	7274223	4093.081617911	100.787573229
3	7340771	4124.879183987	31.797566076
3	7361591	4134.946777524	10.067593537
3	7429688	4167.808696249	32.861918725
3	7463254	4183.768527031	15.959830782
3	7531053	4216.27261453	32.504087499
3	7715187	4303.731561095	87.458946565
3	7852468	4368.562937511	64.831376416
3	8017549	4446.248823532	77.685886021
3	8068551	4470.3540511	24.105227568
3	8178256	4521.335479352	50.981428252
3	8218303	4539.851491515	18.516012163
3	8246316	4552.666056274	12.814564759
3	8499504	4669.039644434	116.37358816
3	8559542	4696.529893629	27.490249195
3	8592080	4711.379993781	14.850100152
3	8616010	4722.129667485	10.749673704
3	8617307	4722.742715571	0.613048086
3	8632614	4729.77953608	7.036820509
3	8707624	4764.307761626	34.528225546
3	8782501	4798.169721818	33.861960192
3	8959952	4879.03857925	80.868857432
3	9255984	5013.048935663	134.010356413
3	9340371	5051.101363937	38.052428274
3	9639791	5185.798207181	134.696843244
3	9712851	5218.21682558	32.418618399
3	9805242	5259.732873105	41.516047525
3	10040737	5364.485621937	104.752748832
3	10057896	5372.257117139	7.771495202
3	10126738	5402.745258652	30.488141513
3	10220277	5444.588428226	41.843169574
3	10240719	5453.417568074	8.829139848
3	10294671	5477.45611242	24.038544346
3	10390447	5519.765435442	42.309323022
3	10397458	5522.814842445	3.049407003
3	10486064	5562.153161278	39.338318833
3	10585666	5606.073998781	43.920837503
3	10673512	5644.921529697	38.847530916
3	10794300	5698.321729114	53.400199417
3	10955526	5769.482000872	71.160271758
3	11032175	5803.571208881	34.089208009
3	11068609	5819.528197157	15.956988276
3	11226813	5890.208935923	70.680738766
3	11402191	5968.29694424	78.088008317
3	11405640	5969.866705059	1.569760819
3	11651222	6078.726104689	108.85939963
3	11682318	6092.338818935	13.612714246
3	11813306	6149.866375858	57.527556923
3	11978477	6222.18899591	72.322620052
3	12322318	6370.937679378	148.748683468
3	12348360	6382.165019562	11.227340184
3	12397560	6403.521713319	21.356693757
3	12570732	6478.501345082	74.979631763
3	12885428	6613.616112958	135.114767876
3	12920781	6628.713942397	15.097829439
3	12933935	6634.332278557	5.61833616
3	13055927	6685.996787499	51.664508942
3	13171540	6734.86826987	48.871482371
3	13249782	6767.84697985	32.97870998
3	13340054	6805.525670824	37.678690974
3	13389109	6826.137405908	20.611735084
3	13415336	6837.254088819	11.116682911
3	13596865	6912.878608647	75.624519828
3	13692686	6953.023086782	40.144478135
3	13947481	7058.869679434	105.846592652
3	14003154	7081.960060645	23.090381211
3	14124217	7132.119390758	50.159330113
3	14141512	7139.41255115	7.293160392
3	14238257	7179.719154336	40.306603186
3	14312501	7210.57252028	30.853365944
3	14328290	7217.088443857	6.515923577
3	14353763	7227.746880442	10.658436585
3	14665347	7357.109908558	129.363028116
4	234998	250	202
4	314467	300	202
4	394622	350	201
4	474820	400	198
4	555450	450	199
4	635893	500	197
4	716676	550	199
4	798271	600	200
4	881520	650	203
4	965005	700	202
4	1048570	750	204
4	1132512	800	203
4	1216751	850	202
4	1301191	900	202
4	1386202	950	202
4	1470625	1000	201
4	1555458	1050	201
4	1642055	1100	202
4	1731128	1150	199
4	1821081	1200	200
4	1911446	1250	201
4	2002176	1300	201
4	2092854	1350	203
4	2184266	1400	205
4	2275873	1450	202
4	2360732	1500	202
4	2445483	1550	203
4	2531079	1600	204
4	2617113	1650	202
4	2704859	1700	203
4	2792339	1750	202
4	2880337	1800	201
4	2968848	1850	204
4	3057993	1900	205
4	3147404	1950	206
4	3237185	2000	206
4	3327045	2050	207
4	3418710	2100	209
4	3510806	2150	208
4	3603727	2200	211
4	3696089	2250	207
4	3786824	2300	207
4	3877739	2350	209
4	3968856	2400	207
4	4060727	2450	207
4	4152556	2500	208
4	4244372	2550	208
4	4336829	2600	210
4	4430529	2650	211
4	4523425	2700	209
4	4616168	2750	209
4	4709029	2800	206
4	4802512	2850	208
4	4896319	2900	208
4	4990886	2950	207
4	5086412	3000	209
4	5182398	3050	207
4	5277862	3100	208
4	5373502	3150	209
4	5468745	3200	208
4	5564554	3250	208
4	5662236	3300	210
4	5760444	3350	209
4	5858683	3400	209
4	5957833	3450	212
4	6057222	3500	211
4	6157405	3550	212
4	6258527	3600	210
4	6360284	3650	212
4	6462443	3700	211
4	6564058	3750	211
4	6667114	3800	213
4	6770115	3850	210
4	6873451	3900	210
4	6977262	3950	210
4	7081659	4000	212
4	7184703	4050	211
4	7288727	4100	212
4	7392852	4150	210
4	7497298	4200	210
4	7602194	4250	210
4	7707427	4300	210
4	7812653	4350	211
4	7918602	4400	211
4	8025563	4450	213
4	8132422	4500	212
4	8240696	4550	212
4	8348632	4600	211
4	8457390	4650	213
4	8567090	4700	213
4	8676727	4750	210
4	8786425	4800	210
4	8896141	4850	209
4	9006044	4900	210
4	9116470	4950	210
4	9227357	5000	210
4	9337924	5050	210
4	9448957	5100	213
4	9560067	5150	214
4	9671416	5200	216
4	9783645	5250	214
4	9896050	5300	213
4	10008334	5350	213
4	10120472	5400	211
4	10233115	5450	212
4	10345374	5500	210
4	10458798	5550	209
4	10571721	5600	208
4	10684943	5650	207
4	10798030	5700	206
4	10910929	5750	205
4	11023971	5800	205
4	11136936	5850	204
4	11248732	5900	206
4	11360790	5950	206
4	11473290	6000	204
4	11585898	6050	206
4	11699461	6100	207
4	11813663	6150	207
4	11927852	6200	206
4	12042520	6250	208
4	12158012	6300	209
4	12273540	6350	209
4	12389738	6400	208
4	12504931	6450	209
4	12620544	6500	209
4	12736776	6550	211
4	12853349	6600	212
4	12970643	6650	212
4	13089121	6700	212
4	13207499	6750	213
4	13326718	6800	212
4	13446145	6850	211
4	13565516	6900	210
4	13685386	6950	210
4	13805735	7000	209
4	13926343	7050	210
4	14047175	7100	210
4	14167123	7150	209
4	14286910	7200	207
4	14406901	7250	204
4	14527266	7300	205
4	14648006	7350	206
