version 2
run HStreamingChurn-0-20140327-23:12:46-4088
attr configname HStreamingChurn
attr datetime 20140327-23:12:46
attr experiment HStreamingChurn
attr inifile htopology.ini
attr iterationvars ""
attr iterationvars2 $repetition=0
attr measurement ""
attr network oversim.underlay.simpleunderlay.SimpleUnderlayNetwork
attr processid 4088
attr repetition 0
attr replication #0
attr resultdir results
attr runnumber 0
attr seedset 0

vector 1  SimpleUnderlayNetwork.globalObserver.globalStatistics  "ParetoChurn: Session Time"  ETV
vector 2  SimpleUnderlayNetwork.globalObserver.globalStatistics  "ParetoChurn: Time between creates"  ETV
vector 3  SimpleUnderlayNetwork.globalObserver.globalStatistics  "ParetoChurn: Time between deletes"  ETV
vector 4  SimpleUnderlayNetwork.globalObserver.globalStatistics  "GlobalNodeList: Number of nodes"  ETV
1	3150163	1000.519880386	2192.0746567953
1	3224090	1012.252586602	431013.59881432
1	3239795	1014.787358013	177.03889549512
1	3255348	1017.254649933	647.54797725579
1	3293539	1023.307928437	13415.330177643
1	3347450	1032.006196179	62541.598370234
1	3480756	1054.270128471	192516.62388306
1	3620298	1077.925976684	258.33450810943
1	3648949	1082.817276675	10250.001151607
1	3649287	1082.875100988	2597.2442945988
1	3677776	1087.724926786	7353.9396920166
1	3720013	1094.965493659	14855.337197881
1	3730498	1096.759185249	2981.5716095317
1	3921178	1129.337995927	12917.280292895
1	3952020	1134.606686524	16.075903618408
1	3980514	1139.519031862	472.36607607603
1	4224023	1181.290668956	798.90370259517
1	4243965	1184.748654298	101293.07738178
1	4266240	1188.577464503	510.9638934796
1	4317568	1197.438959195	680.64584492677
1	4392734	1210.345473587	56042.584226433
1	4419831	1215.044772407	1922.5904249177
1	4442184	1218.888711145	85638.890165598
1	4543839	1236.346256658	2823.6419500565
1	4611300	1247.963537059	1816.7796666411
1	4664699	1257.13173134	2955.3641540585
1	4710365	1265.033947188	2669.8902566833
1	4805014	1281.259724755	355.88171707515
1	4908788	1299.085392269	434.70297632504
1	4944146	1305.162727523	374.12349875384
1	4977251	1310.894980756	4376.1662683272
1	5012568	1316.935805154	329.38541252553
1	5102280	1332.252244865	139.733807187
1	5217729	1352.092668268	31637.305639667
1	5301293	1366.498786865	2751.1163626805
1	5398604	1383.203512475	22834.831540228
1	5435642	1389.589975831	145.86589819618
1	5527894	1405.357651359	1516.9631165822
1	5569429	1412.489859811	1546.1710103907
1	5697858	1434.488384662	506.51965301293
1	5731024	1440.173036223	21886.152783647
1	5773890	1447.617455714	5515.2708307514
1	5825858	1456.538084623	605.29877523698
1	5880257	1465.904795427	1142.3066058324
1	5909775	1470.955641882	1401.6342125512
1	5912814	1471.479261067	490.99435624584
1	5964784	1480.35848452	829.14539321205
1	6007609	1487.725486188	1393.6701838373
1	6015696	1489.081346737	775.95685181234
1	6061682	1497.021632836	9403.5189685829
1	6166033	1514.910238797	22847.442813741
1	6190532	1519.078984951	2007.086726016
1	6265869	1531.96802768	221.80702734232
1	6398616	1554.752429683	310.611389118
1	6407303	1556.188490858	9506.1279679462
1	6426953	1559.568084502	77.713066856461
1	6455308	1564.403237407	202.00350259758
1	6518610	1575.170090835	93.270972098356
1	6544975	1579.691585178	5575.9589852496
1	6687058	1604.570304474	8713.0642999608
1	6700138	1606.823703921	335.08291541175
1	6741512	1614.086529412	308.38793840219
1	6882982	1638.934507286	1011.2660440188
1	6923982	1646.174807315	2981.4930920801
1	6965439	1653.491704483	7685.3086247479
1	6979289	1655.975372101	797.00344209323
1	6987671	1657.405848066	155.15518286245
1	7115057	1679.943586807	207.86287446253
1	7152630	1686.57351085	7964.6284587467
1	7174171	1690.433669621	1029.3042765295
1	7185372	1692.391951458	48.953550997793
1	7250501	1703.931459931	456.65455413238
1	7272772	1707.833473164	429.31743673949
1	7282517	1709.52408864	83684.478169937
1	7377640	1726.422174626	89645.501131736
1	7405060	1731.248196229	86.962354316316
1	7423788	1734.607246943	294.28971051522
1	7547524	1756.56715117	1305.5670179126
1	7748826	1792.234305757	4693.2898980596
1	7835413	1807.700771132	211.26200215508
1	7902993	1819.693491643	688.26347880483
1	8046889	1845.394378591	2428.7634925117
1	8100325	1854.928970652	51.375960227899
1	8103732	1855.515651084	34958.761586356
1	8125186	1859.325455329	4509.3029734167
1	8163032	1866.079896829	13.836805244361
1	8255622	1882.607845557	1885.5680559749
1	8261986	1883.757770144	2021.052132674
1	8321287	1894.326445855	2144.703251604
1	8338258	1897.357202271	378.32838069051
1	8351683	1899.755600121	3954.4760454354
1	8443721	1916.76151261	378.29880829663
1	8567313	1939.847882978	12083.852635575
1	8719649	1968.257385933	32692.490158346
1	8727200	1969.694685364	5638.3384045212
1	8743809	1972.750647539	34051.289357599
1	8799411	1983.055760153	138.86891919482
1	8849499	1992.454816237	10666.334500619
1	8893259	2000.62795981	2210.0906031187
1	8895723	2001.063575877	1992.1975731576
1	8937502	2008.817036416	6.5187335595258
1	9007431	2021.818927726	1435.4253151891
1	9019456	2024.030086934	6095.4671575797
1	9117824	2042.332472275	2926.5483928404
1	9119656	2042.700956897	326.68700395497
1	9172992	2052.616853631	93.050184802889
1	9177578	2053.45367662	1548.6887196368
1	9205156	2058.589322026	1624.3232219091
1	9267074	2069.975730162	13879.1408862
1	9277100	2071.865523304	318.23456815888
1	9300566	2076.145583184	1520.414698216
1	9332155	2082.009469962	64982.261992085
1	9399450	2094.465416193	272.48801132427
1	9576207	2127.189990553	1857.7276909443
1	9601744	2131.917154993	1138.9124206136
1	9682781	2146.936426971	17733.23554407
1	9690935	2148.455667306	881.3291811673
1	9715381	2152.977675099	39645.582208115
1	9731199	2155.864228237	954.48371372699
1	9743615	2158.191670825	41586.204719674
1	9757024	2160.649917771	905.51065915004
1	9802811	2169.095490714	11363.454108437
1	9885516	2184.45131888	39124.420125247
1	9936780	2193.958317835	4235.9651445457
1	9944628	2195.406648339	19864.887083279
1	9949603	2196.297562347	1334.0237491213
1	10066730	2217.877547876	35.210099481714
1	10086028	2221.413091205	28201.14418361
1	10129625	2229.479258945	343.6501676456
1	10200678	2242.687831536	29200.73999318
1	10202203	2242.964373856	417.75553277654
1	10299466	2260.823358403	121.81351205385
1	10365017	2272.881016669	124312.56142417
1	10408783	2280.930931526	2502.2685660204
1	10463089	2290.957203624	2215.5325310519
1	10481623	2294.357742104	120.1662319925
1	10618294	2319.416528555	334.03263089595
1	10638936	2323.17416879	203.05826096365
1	10646783	2324.66920224	1015.1380324143
1	10682259	2331.165563993	2564.0934622404
1	10702825	2334.945109026	728.25138427557
1	10747605	2343.128531437	4986.0159556017
1	10767127	2346.793009081	5571.4462985439
1	10837064	2360.08137553	84.475601133987
1	10889029	2369.822425505	18843.951748359
1	10895019	2370.913270796	695.7469838953
1	10930104	2377.53846226	637.94807476188
1	10978525	2386.537841442	15.825638454112
1	11067658	2403.232681178	6985.5909115988
1	11070356	2403.758784098	2235.094612128
1	11111690	2411.500198342	2515.9875615194
1	11214209	2430.737273084	9741.6736224312
1	11306585	2447.973170102	327.28057803035
1	11543325	2492.350622652	37203.165841109
1	11545891	2492.857543609	1100.2088955267
1	11569904	2497.364610186	7836.5949498571
1	11591914	2501.427680494	43.266073713969
1	11617802	2506.222264701	4049.2797401274
1	11635945	2509.642596384	142.67572111495
1	11644130	2511.156827349	3061.2512908147
1	11680618	2517.964033431	23854.840901236
1	11745168	2530.010458526	520.11708417073
1	11771394	2534.923838689	45371.058690981
1	11778084	2536.160599518	4538.8598957975
1	11790199	2538.443857115	10386.298407338
1	11814634	2542.97391526	2670.4435717405
1	11865109	2552.254102492	456227.99822981
1	11877459	2554.537968186	734.16552190176
1	11949471	2567.903487906	156.95843538305
1	11963932	2570.696920447	4711.2105020648
1	11977068	2573.095196697	9703.6419554757
1	12025033	2582.222636266	29248.413060251
1	12067816	2590.555573679	628.26442367994
1	12129434	2602.46681962	935.91052149612
1	12273665	2630.121244758	16293.120250817
1	12427151	2659.793703224	2501.049845827
1	12444640	2663.153057122	5712.6250183249
1	12465499	2667.117892296	2149.8641788461
1	12523191	2678.196133499	3019.6316591397
1	12614797	2695.795249248	3574.348789341
1	12645660	2701.705635234	1855.627419536
1	12679674	2708.225755215	39552.834284967
1	12781789	2727.846720881	1653.011000821
1	12787574	2728.910399203	249.305976448
1	12799925	2731.276329897	3922.7550282293
1	12882797	2747.042357382	3376.7838265666
1	12905199	2751.339162784	888.10891509228
1	12937112	2757.472644479	2472.5545782176
1	13033910	2775.937480566	160.50499960441
1	13065785	2782.074255843	53783.03464037
1	13179340	2803.725178724	456.24776568819
1	13359919	2838.27531591	3790.8672407
1	13432436	2852.171951883	18213.978752181
1	13471629	2859.690552148	2504.2950061534
1	13481136	2861.513784718	690.29099574614
1	13482593	2861.803713525	55.347833817454
1	13632272	2890.34632261	819.55114368052
1	13726609	2908.548227337	33040.663824262
1	13734512	2910.019011011	13165.0897193
1	13802961	2923.077020027	250.92453126492
1	14019760	2964.64367207	109.98501060426
1	14021208	2964.903194395	2091.5139626793
1	14118516	2983.492241026	874.29190702961
1	14157938	2990.9802415	17040.528358868
1	14170277	2993.359323471	2997.2140710714
1	14215606	3002.001086384	2621.8316374038
1	14217083	3002.28144101	841.57841578015
1	14232573	3005.276464821	1530.9934813653
1	14274053	3013.116287757	728.2029111609
1	14274309	3013.157976454	521.52708797612
1	14276731	3013.65827453	109225.38020618
1	14453126	3047.288504915	523.9965430703
1	14472004	3050.849372241	11676.5549612
1	14489781	3054.199657651	7446.8108912969
1	14583270	3072.30986583	36869.469227591
1	14607602	3077.088118233	5807.1926398056
1	14631169	3081.71064906	1354.7820452972
1	14695199	3094.224326209	372.576498642
1	14802562	3115.09604639	1252.860560343
1	14813964	3117.343887502	1755.3679551131
1	14835627	3121.59951369	8283.391209321
1	14839848	3122.39507215	19.730590464582
1	14885360	3131.234338401	3396.0598135136
1	14969385	3147.638895776	7619.9518055536
1	15015994	3156.645951617	3053.8544089662
1	15065024	3166.132892574	1264.4413699618
1	15082728	3169.603314107	306.10413905104
1	15219769	3196.075920435	115.25452501786
1	15242681	3200.582662009	1004.2432748163
1	15246513	3201.311858633	5693.2083350208
1	15246922	3201.395447449	56621.337761033
1	15259133	3203.760462536	1545.3423790302
1	15372318	3225.696838983	1608.0260734129
1	15378034	3226.785127422	4920.8792816719
1	15390342	3229.111581427	963.14243193698
1	15431703	3237.042661951	43.200907468344
1	15626492	3274.697046364	47245.032592943
1	15636475	3276.618435842	10559.941188101
1	15639101	3277.062740386	27.576017740106
1	15724929	3293.594734107	1.4039230255049
1	15760636	3300.454313374	3047.7528677361
1	15839402	3315.658391785	721.87883683632
1	15909139	3329.099107259	1520.797760973
1	16184557	3382.36822842	8433.2409227407
1	16195927	3384.595351375	10784.076525928
1	16287876	3402.385554825	3598.8888412604
1	16356349	3415.663743174	6216.4606974292
1	16378211	3419.928908342	689.18036224284
1	16402592	3424.6993499	741.40657689271
1	16407323	3425.620977278	32.596799725051
1	16489298	3441.883674805	73.368593075929
1	16530712	3451.485060451	5867.3703600623
1	16655719	3480.197692496	131.19936417675
1	16656605	3480.431352328	5141.2751776011
1	16672946	3484.1823956	57415.323511711
1	16675087	3484.665552271	5830.5189032452
1	16722659	3495.566864439	12685.217793944
1	16732797	3497.876551496	26137.903997732
1	16741890	3499.901137153	933.20710926613
1	16742333	3499.990424348	12556.953622064
1	16769223	3506.145176765	2188.8669985042
1	16810418	3515.592589855	1693.9155033608
1	16826225	3519.163300442	4596.0856318566
1	16831623	3520.393522506	4024.2096183775
1	16886285	3532.826182205	912.15957397262
1	16969126	3551.692739839	768.60580793247
1	17028992	3565.345122439	146.76997753328
1	17176768	3599.150934277	1250.6148323319
1	17190153	3602.215570319	140547.60214519
1	17284740	3623.817277673	5056.8885058501
1	17291877	3625.44744497	3394.4628157366
1	17367617	3642.779002282	529.67748746373
1	17480747	3668.819993664	4448.37657899
1	17529435	3680.041078251	5951.7100252813
1	17584116	3692.782567392	618.28195613313
1	17653823	3708.927777196	5462.6860927447
1	17675313	3713.868234235	177.50818770982
1	17710795	3722.018476703	11190.174914985
1	17861517	3756.803159746	2832.9713615687
1	17897804	3765.149433729	4588.1343688484
1	17962557	3780.112283391	2810.5699608871
1	18032316	3796.113598377	1044.4193104089
1	18094412	3810.408606448	18378.083484502
1	18095261	3810.631888542	387.85675521293
1	18103556	3812.504135993	9449.0958963108
1	18108412	3813.63665146	985.14262684822
1	18133632	3819.39171819	3798.922095785
1	18313734	3860.767541041	44171.076416012
1	18351038	3869.402756955	1807.9299382818
1	18364359	3872.470029216	1083.8355491659
1	18405070	3881.954084751	4987.0532005921
1	18510796	3907.324998986	441.13569913307
1	18528407	3911.504788519	504.87015243197
1	18558184	3918.629824705	2905.3770380876
1	18605284	3929.876339823	92.457156326541
1	18628156	3935.284056033	2739.9324657022
1	18633406	3936.555917147	6773.4524062298
1	18699095	3952.217500375	1036.7619026018
1	18712370	3955.419737792	223.6680192768
1	18748149	3964.02299495	7514.2853515151
1	18775575	3970.527568879	2129.2701703108
1	18833100	3984.154665957	366.98774768156
1	18860552	3990.749139755	524.0248962393
1	18876315	3994.417645978	1317.2856771866
1	18900125	4000.04221033	5516.6073168426
1	18909839	4002.347981577	3236.3256588509
1	18978501	4018.641708761	1451.432396995
1	19003076	4024.422250498	596.60586554315
1	19096403	4046.436483808	62.772465552814
1	19173911	4064.751504619	2611.9592753849
1	19202010	4071.420208132	2073.8477735425
1	19215341	4074.547764363	121.98731367834
1	19247956	4082.181553999	8825.1409624681
1	19249248	4082.500683689	100277.60480067
1	19254857	4083.825877336	2887.9528412181
1	19334028	4102.42512926	2295.7025925726
1	19371185	4111.193314411	3749.6937208825
1	19381138	4113.555320846	25061.8270011
1	19453422	4130.594204834	1223.4540272005
1	19484072	4137.774380045	45027.703739715
1	19501553	4141.904227748	59757.678729715
1	19557575	4154.96605563	23649.765875418
1	19570000	4157.970568399	862.43146164873
1	19587187	4161.994371437	8864.9782653942
1	19667870	4180.892356449	1072.2495124672
1	19705936	4189.849951096	44.570613758578
1	19720199	4193.253560512	370.04114763699
1	19736971	4197.136429706	15568.162666187
1	19785501	4208.5840295	520.50463523228
1	19855278	4225.027259672	5525.9796251554
1	19856022	4225.198221338	8259.0654666471
1	19869341	4228.300686552	13187.341908233
1	19884562	4231.919572325	173.15982138303
1	19915572	4239.24479578	1749.320432219
1	19915839	4239.301944313	1.9450250133223
1	19995942	4258.247662419	128.72229993959
1	20006502	4260.765159327	131346.5978944
1	20053640	4271.808929066	972.83604055039
1	20073979	4276.5824587	8719.1228023821
1	20136610	4291.35186033	2671.6911308566
1	20209119	4308.441617886	330.33570125229
1	20359341	4343.808922511	979.09282317715
1	20436836	4362.130144501	343.35509273404
1	20567036	4392.747703458	9058.6019482949
1	20576095	4394.793419201	14907.857786125
1	20613752	4403.683146969	12987.670883
1	20619830	4405.070326584	1.0916246158111
1	20641850	4410.254153141	15106.168013087
1	20644180	4410.761121708	1647.1699374602
1	20737976	4432.710616334	2986.8634033144
1	20746469	4434.720692884	1994.9615084309
1	20802787	4447.893938511	2437.097497759
1	20813706	4450.464762264	4084.5678532783
1	20848060	4458.476322558	33314.623196626
1	20900114	4470.60881755	1222.9571484455
1	20954506	4483.289637767	6612.7164577603
1	20963850	4485.524317794	9685.7389012563
1	20969577	4486.859360033	4299.1116533027
1	21008387	4495.890460246	4807.8618249987
1	21096771	4516.389721194	15004.927398638
1	21149726	4528.739666056	488.16696966402
1	21155984	4530.185242569	990.46992617015
1	21294417	4562.507598956	75.154678596152
1	21330141	4570.887591483	3098.1903166972
1	21457969	4600.685431631	4789.3076959946
1	21512431	4613.362455233	3277.345983838
1	21544940	4620.987897685	673.95135362469
1	21563251	4625.256947418	287.42245572229
1	21571265	4627.082703955	4540.3041839003
1	21628874	4640.478045808	5161.8051044167
1	21658470	4647.342516635	67.752967800268
1	21668994	4649.768767705	445.1658861457
1	21768392	4672.852819051	747.37569424906
1	21769753	4673.161833041	96.878373950269
1	21809050	4682.325463073	9660.78767263
1	21843373	4690.259379727	4454.1707502284
1	21949027	4714.700508504	462.42275584239
1	21978782	4721.573993986	568.83223799386
1	22010224	4728.858071117	18505.048869216
1	22029525	4733.215121609	22472.861637389
1	22142540	4759.388386365	2706.0378906043
1	22258337	4786.193062209	235.77684720014
1	22322179	4801.032824769	580.50776904858
1	22375224	4813.159033958	223.38609111337
1	22416788	4822.742930648	11968.181633462
1	22460079	4832.731947803	1189.2009478531
1	22463298	4833.456165512	22384.168665568
1	22515663	4845.518785484	4301.3710516722
1	22556261	4854.806655691	38.600572674813
1	22576557	4859.572375478	430.00749173288
1	22597004	4864.219517833	801.25584428504
1	22618394	4869.166465133	881.62548508621
1	22645861	4875.474448974	27401.382202642
1	22678833	4883.079074542	2002.3294078086
1	22742176	4897.658547104	5848.7696578227
1	22745414	4898.424877834	105.81769566525
1	22838985	4919.967874244	4578.0578645323
1	22978231	4951.943195604	139.66907344307
1	22999703	4956.868606196	10707.420304534
1	23013481	4959.998517309	1564.8645927964
1	23027216	4963.178486387	5859.2097455852
1	23112463	4982.761370375	13725.966557855
1	23157179	4992.946586836	140.62606605162
1	23164047	4994.506189168	9453.1054030101
1	23169479	4995.742513612	105575.9945653
1	23203528	5003.485266884	1345.354512059
1	23239001	5011.629443844	1135.3736253457
1	23254195	5015.005921425	501.56731453472
1	23256090	5015.473210645	25.946488679878
1	23260304	5016.465828541	200.85979161313
1	23323915	5030.909610923	4579.6372261733
1	23339941	5034.613011081	99.125216017354
1	23354235	5037.859189468	17502.474297313
1	23401698	5048.686517231	1075.4853359091
1	23416838	5052.141567401	245.66897848056
1	23448648	5059.307461555	3361.6887449394
1	23582964	5089.829916965	9172.9880942791
1	23652311	5105.63524248	66.721264074549
1	23744731	5126.642275837	6949.3651331668
1	23844906	5149.372227846	4643.9240575113
1	23851158	5150.780917292	3016.2764104537
1	23862728	5153.392144471	785.21368393636
1	23872963	5155.716403076	12155.551778039
1	23873068	5155.734445781	6901.8442952685
1	23885079	5158.436698	20484.436855671
1	23947731	5172.680123429	349.2164416637
1	23948022	5172.725185245	2024.7324103617
1	23961654	5175.80387081	45081.417792554
1	24049781	5195.655694662	12424.346878364
1	24055617	5196.96675644	283536.85170243
1	24178170	5224.678553709	3786.9078144294
1	24205452	5230.788240726	3616.2446148278
1	24227579	5235.797317747	3072.7823838185
1	24317086	5255.953829169	589.55907005236
1	24331167	5259.117909797	21089.057347662
1	24342001	5261.607899352	3305.2939246094
1	24410701	5277.055418156	14414.318814279
1	24421578	5279.459756811	16260.398384906
1	24464521	5289.116477681	61815.341427727
1	24545995	5307.410702179	465.58027368091
1	24599842	5319.522768282	14897.161397236
1	24643113	5329.301235408	2442.0908139406
1	24754589	5354.34162076	16645.692973895
1	24850662	5375.865073111	42106.305746004
1	24866318	5379.400154032	263475.60740044
1	24929229	5393.48980252	7227.4855348051
1	24943631	5396.755999721	7035.039241771
1	24969806	5402.665629509	35.754047982874
1	24987502	5406.633874689	584.70475520233
1	25013874	5412.550692742	134.78166679164
1	25059771	5422.789554775	18694.198387799
1	25144147	5441.713310618	10019.906108775
1	25174626	5448.614181147	1264.284826603
1	25232397	5461.568258401	2225.0730297163
1	25288519	5474.135037035	1662.8063769604
1	25363962	5491.039534244	145335.2897472
1	25400879	5499.252755702	14.268909339182
1	25433295	5506.591683126	5053.3920532999
1	25438461	5507.753172017	238.7286020089
1	25495711	5520.542299421	11762.758424496
1	25562320	5535.449847603	55545.796055564
1	25637216	5552.108950231	4106.7070280669
1	25688005	5563.403715966	360.86562953498
1	25792883	5586.848832408	1516887.7242501
1	25839209	5597.107440343	190.10675027112
1	25942714	5620.081542677	43286.134036933
1	26030047	5639.585270453	107.7431246662
1	26207916	5679.184892631	2891.914570843
1	26379428	5717.420760679	466.6261178544
1	26410850	5724.330014645	274.69176076752
1	26435318	5729.767464805	5626.9711214653
1	26540815	5753.223298995	19164.693184978
1	26582900	5762.595114668	1422.1697959629
1	26604115	5767.291057708	750.83816314156
1	26631020	5773.244198001	2137.0037574791
1	26712988	5791.450852027	764.27551811421
1	26744165	5798.299521903	89.907937117329
1	26761989	5802.246612638	205.42527229063
1	26821219	5815.377199566	2067.230642762
1	26856799	5823.200616319	8482.4771651468
1	26956137	5845.162002755	4144.2354695655
1	27027260	5860.822328916	819.6665031839
1	27038773	5863.367419876	2780.9241263538
1	27152136	5888.404870944	1288.8284473897
1	27156958	5889.477264047	476.51855677944
1	27222549	5903.887714663	6361.6795338445
1	27258648	5911.778176004	10.806651057192
1	27370446	5936.278690116	619.78227869663
1	27376420	5937.648800833	4073.844976418
1	27460410	5956.094189455	1589.629587956
1	27493998	5963.404594578	530.35996687429
1	27615901	5990.05183316	4964.7309101079
1	27796450	6029.597285591	5599.7540129258
1	27859004	6043.286616759	2939.8970760104
1	27911145	6054.754971359	1413.2519249677
1	27967632	6067.185240906	16587.405006895
1	27974702	6068.746187875	43797.922342758
1	27993683	6072.909730818	2703.6658601901
1	28049060	6085.002871276	291.63617634303
1	28137328	6104.392786402	843.05419484513
1	28168439	6111.203400698	941.94592861371
1	28182589	6114.284931855	5017.7190509784
1	28202684	6118.689803848	201.52549646441
1	28256737	6130.571994916	88.882666755448
1	28273923	6134.256968215	2469.4042854461
1	28292773	6138.390556986	84.152703119579
1	28379655	6157.249331927	9158.5072932629
1	28398054	6161.262131905	10099.858497244
1	28696331	6226.331707492	3987.7357455511
1	28740932	6236.036516173	290.34746107058
1	28743614	6236.65778861	16286.159963008
1	28829604	6255.398942786	63119.742422547
1	28835290	6256.651618424	760.04723739124
1	28872715	6264.78269328	851.31304231316
1	28875584	6265.406418597	200.22727748592
1	28877347	6265.784225394	38999.171283141
1	28880695	6266.544203989	14275.724591049
1	28917217	6274.514023322	16088.074845432
1	28953826	6282.478049862	3253.4272143031
1	28990626	6290.556254771	176.55196485458
1	29168523	6329.365277185	3597.4752189764
1	29265194	6350.489635701	2098.6923521346
1	29318413	6362.131780761	34.368648297275
1	29379279	6375.439793904	16987.99614341
1	29584701	6420.28644577	3139.5854330872
1	29681088	6441.453695082	17780.674334583
1	29695574	6444.658309849	8271.3832613809
1	29745286	6455.580978276	133.3182519394
1	29778013	6462.686144866	2716.4322919177
1	29785914	6464.420474256	43851.225767877
1	29936097	6497.268523757	355.01858102823
1	29949449	6500.180702635	631.01997091295
1	30012478	6513.977646711	15791.94385968
1	30027638	6517.339829663	4232.3966687983
1	30053827	6522.99565481	942.47818686401
1	30106159	6534.429368262	217.45114484413
1	30238866	6563.338690707	4371.3476203027
1	30255558	6566.950469472	9593.2489781268
1	30312879	6579.47049818	3356.4972031814
1	30473262	6614.472806342	938.50533803177
1	30488675	6617.828858725	3682.6468690725
1	30491994	6618.509422068	1848.9555466774
1	30508431	6622.074916705	10886.291727851
1	30618660	6645.994894508	213.82968272454
1	30657998	6654.531770595	675.76022110277
1	30714979	6666.873478065	536.01128235866
1	30722599	6668.503523816	69676.222144545
1	30760059	6676.539659414	56384.980540524
1	30801600	6685.474484275	2024.9286958708
1	30966439	6720.89956299	1040.7055096168
1	30971973	6722.03330191	277.84631107016
1	31008030	6729.795723157	7176.1580518744
1	31015745	6731.465504744	195.17535072028
1	31016180	6731.555234808	1152.2207909985
1	31029893	6734.499988573	177.01192673729
1	31055283	6739.92617747	41518.496231557
1	31096363	6748.692808515	4516.554143007
1	31114033	6752.427810044	5500.3029099147
1	31228432	6776.922158286	69.716147007623
1	31311012	6794.546193671	3400.8200856763
1	31334387	6799.488663765	1440.2262734802
1	31441267	6822.265504955	14.178108684882
1	31477739	6829.990273159	7.3446490811635
1	31719284	6881.681116524	107.01200390988
1	31763334	6891.18376622	59.356119265762
1	31805139	6900.188095765	15714.335646597
1	31977073	6937.21137378	44.103104397933
1	31996103	6941.274421325	10862.726639946
1	31998310	6941.741103862	45486.24542547
1	32060399	6955.126721928	7225.5777231562
1	32071186	6957.43035166	487.44501067399
1	32080473	6959.397528444	3654.2167002819
1	32092109	6961.887011126	61342.209091466
1	32094334	6962.346519081	61434.313866917
1	32163108	6977.101329598	1861.4139575128
1	32166933	6977.923689666	1251.8488608211
1	32175731	6979.812517239	34.28453098573
1	32184376	6981.63770149	11.289812967945
1	32224110	6990.101304875	12244.448972643
1	32230059	6991.347328625	944.79650129708
1	32366314	7020.433670261	400.88123424155
1	32438232	7035.761371274	862.45747271522
1	32509027	7050.824988606	14252.593904696
1	32521797	7053.54973831	49827.814324739
1	32527097	7054.686955775	15.512876072865
1	32547019	7058.888886437	679.0324720916
1	32551782	7059.926876582	1563.4162253478
1	32623680	7075.211442884	340.93326280845
1	32704247	7092.353276738	3567.9211897593
1	32759457	7104.060418109	83433.871278922
1	32876069	7128.849245783	1628.6710136629
1	32903900	7134.72730556	508.54105878275
1	33048574	7165.277745586	493.06133153429
1	33057693	7167.251253601	16531.298535161
1	33129409	7182.415346134	48436.81849545
1	33132554	7183.047893936	24953.245630603
1	33149191	7186.581093435	11.432632424274
1	33195528	7196.366668364	13076.819173271
1	33240277	7205.818223079	14178.474724084
1	33282137	7214.702153505	12169.280372715
1	33317628	7222.16336099	1625.762195028
1	33324810	7223.68721487	1427.7124200268
1	33463894	7253.019526528	4006.33114178
1	33638001	7289.67596513	133.60335651966
1	33642414	7290.635057051	3733.5653101543
1	33666996	7295.727916988	599.8599270764
1	33688383	7300.272698711	41.211176252216
1	33703012	7303.334588252	1694.6066831698
1	33804852	7324.748110334	1920.0510140598
1	33902809	7345.349031537	5952.5823134027
1	33909695	7346.815682684	937.80948177886
1	33927916	7350.639334418	16.902642606557
1	34061435	7378.725294111	9375.7714074605
1	34151588	7397.761512792	55896.154685284
1	34263342	7421.267199105	508.90152123577
1	34312722	7431.703941666	535.67094610652
1	34322009	7433.627626363	340.89509989319
1	34386004	7447.148428123	3584.7852621671
1	34401302	7450.357232561	439.96088860905
1	34481113	7467.173028992	1358.0450825826
1	34616010	7495.531075194	208.5882701694
1	34674764	7507.897211032	1171.0088336488
1	34849313	7544.58724872	1063.4725076609
1	34883457	7551.794906351	4712.7244619393
1	34919773	7559.423476271	621.91029754329
1	34929519	7561.483392424	528.65165010396
1	34956858	7567.234460944	2715.6041651197
1	35121866	7602.035803141	2776.47164415
1	35129251	7603.585736424	13780.300752494
1	35165565	7611.207159323	171.10128219493
1	35188016	7615.911959762	25278.311470661
1	35612708	7705.127359832	29345.476774036
1	35662659	7715.644958058	106.68978299009
1	35676200	7718.471962246	9838.8739650994
1	35686281	7720.587845163	5245.5391681797
1	35694330	7722.322488375	3084.9152837699
1	35882299	7761.712535058	765.01909301604
1	35957932	7777.542387967	7755.566805234
1	36021887	7790.985138886	3652.4308188354
1	36056743	7798.324026156	165.24399776789
1	36200367	7828.483939029	656.90687361594
1	36252767	7839.461896241	13340.754027062
1	36256703	7840.282063898	1523.1246280538
1	36284217	7846.044939128	63.629591317204
1	36308310	7851.132214089	7583.7384381121
1	36489081	7889.11097962	650.78843793815
1	36578804	7908.017868226	2070.6220928279
1	36739845	7942.168592909	23906.302009684
1	36748263	7943.951077378	507.37281026093
1	36829062	7961.000117409	365.84832214921
1	36842546	7963.918784149	3110.4785400957
1	36861697	7967.953196998	363.76760556583
1	36908365	7977.745772536	59.646287029976
1	36917402	7979.718684721	2599.9650404417
1	36946906	7985.935461665	0.32982641801677
1	36996213	7996.41910099	1571.4413299808
1	37006221	7998.532516801	6831.1202880883
1	37006422	7998.577022155	27922.861016118
1	37045796	8006.872107022	2827.2429084358
1	37090474	8016.301819276	13830.578429049
1	37153569	8029.487543315	1094.3694730556
1	37175144	8034.023615316	552.33005052712
1	37291973	8058.651747366	181.72304763602
1	37403219	8081.92591207	517.04950498791
1	37437810	8089.16164053	2099.222654391
1	37481245	8098.248382374	20511.151687414
1	37565627	8115.944064398	1130.9176562959
1	37581149	8119.250181123	10951.36764146
1	37600914	8123.409315243	102105.81113092
1	37679799	8139.914580792	2666.1727166823
1	37696607	8143.450922125	50.868542895024
1	37798252	8164.726427753	7032.83679205
1	37798677	8164.816804743	2854.8695396742
1	37933892	8193.272756979	1367.0423877051
1	37951313	8196.935023057	53.033330457092
2	3150163	1000.519880386	1.75656772
2	3224090	1012.252586602	11.732706216
2	3239795	1014.787358013	2.534771411
2	3255348	1017.254649933	2.46729192
2	3293539	1023.307928437	6.053278504
2	3347450	1032.006196179	8.698267742
2	3480756	1054.270128471	22.263932292
2	3620298	1077.925976684	23.655848213
2	3648949	1082.817276675	4.891299991
2	3649287	1082.875100988	0.057824313
2	3677776	1087.724926786	4.849825798
2	3720013	1094.965493659	7.240566873
2	3730498	1096.759185249	1.79369159
2	3921178	1129.337995927	32.578810678
2	3952020	1134.606686524	5.268690597
2	3980514	1139.519031862	4.912345338
2	4224023	1181.290668956	41.771637094
2	4243965	1184.748654298	3.457985342
2	4266240	1188.577464503	3.828810205
2	4317568	1197.438959195	8.861494692
2	4392734	1210.345473587	12.906514392
2	4419831	1215.044772407	4.69929882
2	4442184	1218.888711145	3.843938738
2	4543839	1236.346256658	17.457545513
2	4611300	1247.963537059	11.617280401
2	4664699	1257.13173134	9.168194281
2	4710365	1265.033947188	7.902215848
2	4805014	1281.259724755	16.225777567
2	4908788	1299.085392269	17.825667514