version 2
run HStreamingChurn-0-20140417-13:06:05-9460
attr configname HStreamingChurn
attr datetime 20140417-13:06:05
attr experiment HStreamingChurn
attr inifile htopology.ini
attr iterationvars ""
attr iterationvars2 $repetition=0
attr measurement ""
attr network oversim.underlay.simpleunderlay.SimpleUnderlayNetwork
attr processid 9460
attr repetition 0
attr replication #0
attr resultdir results
attr runnumber 0
attr seedset 0

vector 1  SimpleUnderlayNetwork.globalObserver.globalStatistics  "ParetoChurn: Session Time"  ETV
vector 2  SimpleUnderlayNetwork.globalObserver.globalStatistics  "ParetoChurn: Time between creates"  ETV
vector 3  SimpleUnderlayNetwork.globalObserver.globalStatistics  "ParetoChurn: Time between deletes"  ETV
vector 4  SimpleUnderlayNetwork.globalObserver.globalStatistics  "GlobalNodeList: Number of nodes"  ETV
1	132931	188.73574579	5394.2199870128
1	361091	382.468614975	371.88883664253
1	430964	442.762445141	80.477708753886
1	539797	536.449851772	46531.532411461
1	557095	551.132598212	1016.7919153786
1	715875	684.993743268	498.77556449123
1	982571	910.03077188	18233.083585528
1	1208508	1099.889579299	1943.8759125379
1	1213847	1104.496370749	340.52788676759
1	1293757	1170.795940599	2304.0943452659
1	1442687	1293.496999405	392.24760147807
1	1501661	1341.765713358	812.8662993263
1	1532206	1366.448772464	30.6439711914
1	1682327	1488.289673478	1517.7011132902
1	1705554	1507.24608624	11254.392221525
1	1797238	1581.141508787	82592.773087424
1	1814970	1595.436405806	14590.943370594
1	1859029	1630.403750609	127.3245903485
1	1864984	1635.16804137	2920.7680659469
1	1900300	1662.710648357	1304.2749511658
1	1905478	1666.653764423	4430.4473071988
1	2186090	1884.716909078	1564.5488051609
1	2220304	1910.968377132	1006.1452820975
1	2444718	2083.248289141	975.81592488328
1	2485530	2114.294927765	180.78825864287
1	2506335	2129.932927828	2209.1478830875
1	2524482	2143.708656311	64.209584332673
1	2707535	2280.455782004	82.973902064234
1	2708786	2281.393229651	596.40550730892
1	2753575	2314.78855182	17.733089211462
1	2788717	2340.440395534	4734.7395158913
1	2809054	2355.444836013	23147.591961251
1	2923873	2438.920111693	4282.3768659912
1	2943537	2453.093340269	11254.255219368
1	2967235	2470.005333593	2301.0070855019
1	3001730	2494.693633843	33.513271817761
1	3242167	2668.550475034	13237.464699149
1	3363300	2756.288076466	64632.68811724
1	3446432	2816.17197674	16195.977780937
1	3446920	2816.436438855	1912.8716154974
1	3450088	2818.667885249	2082.7215099029
1	3497304	2852.169069901	1862.2205553941
1	3593987	2920.438222963	0.76059486765476
1	3719959	3008.907412266	349.29791818012
1	3838944	3092.615494701	918.57126822168
1	3849449	3099.919112152	6882.3263544462
1	3898930	3134.467144813	3731.9357850342
1	3969954	3183.704276217	1985.8710954824
1	4050632	3238.780752787	9869.7839856165
1	4113675	3281.198526551	13754.963944054
1	4181086	3326.85617733	11347.466589401
1	4186151	3330.159949762	2245.3944842101
1	4216501	3350.376725902	677.80030352212
1	4253611	3375.120417738	24144.704201309
1	4404313	3475.287447187	498.87275535824
1	4546926	3569.46823278	2717.2262298987
1	4547461	3569.859232012	689.29774326172
1	4566969	3582.465550676	875.69932823017
1	4661366	3644.134418195	138.27477174253
1	4848062	3765.620991194	5401.7220666161
1	4866428	3777.580341794	38.473576035523
1	4945339	3828.364676911	99.35166713399
1	5022845	3878.191918619	55391.216387501
1	5026893	3880.781362836	30.830430741558
1	5033937	3885.132319925	8.4455685204688
1	5194448	3987.150366632	4978.0460476131
1	5195459	3987.83572148	227.76247383193
1	5288398	4046.177915989	4488.8157526263
1	5584782	4231.246204301	202.4178347077
1	5612631	4248.437000758	7528.0277547675
1	5620407	4253.250516308	37741.308548058
1	5944959	4446.912312944	599.5443781728
1	5981937	4468.07733342	2877.213313725
1	6044898	4503.583369449	5411.5488667895
1	6069758	4517.705027213	58114.34820584
1	6198249	4589.720472451	13088.276378738
1	6385100	4694.652862843	789.30383518141
1	6559025	4791.743826691	1308.0811639462
1	6571346	4798.635325063	26327.423536152
1	6577912	4802.174319393	3147.3998651681
1	6594022	4811.098666101	284.4612573198
1	6621564	4826.334039461	19.202089768515
1	6667993	4851.874012531	683.25640642286
1	6740184	4891.47709736	19230.110177554
1	7034168	5051.816761674	7002.1494500011
1	7081504	5077.496672755	349.07981454172
1	7642516	5383.934271716	2068.2839462796
1	7745096	5439.963662801	1153.9382290459
1	7955755	5554.473653447	2396.8991189125
1	8081739	5622.815359076	1550.7314919265
1	8313695	5747.711606269	725.17476261096
1	8588957	5895.494287711	9671.7738752307
1	8733902	5973.126779739	7334.4770494991
1	8798021	6007.114938123	1266.5589763406
1	8800140	6008.278037153	2455.7742441111
1	8897725	6059.737325352	8633.2964058847
1	8966292	6095.969978539	5355.7832727449
1	9028729	6129.131993248	4457.2852651971
1	9216985	6229.834614159	6046.7579715466
1	9679502	6475.705594817	59949.706408139
1	9726200	6500.348734011	165.72586463808
1	9905588	6594.847331516	124.0776101454
1	10046616	6668.908938631	5546.5080890185
1	10048015	6669.66701471	373.3093201166
1	10076090	6684.205599939	1958.4036443937
1	10187726	6742.112751345	8894.9307116361
1	10317226	6808.388260823	2075.4596256351
1	10449094	6875.855761715	4045.7349245331
1	10700599	7004.054913093	0.34775623075203
1	10766547	7037.417942774	234.46135369327
1	10888774	7099.521484215	84586.480768344
1	10967198	7139.217212534	906.18336185425
1	11046012	7178.957449999	732.42809192834
1	11216979	7264.663203837	9993.4660390567
1	11364818	7341.513090449	849.8914084358
2	132931	188.73574579	39.615709808
2	361091	382.468614975	193.732869185
2	430964	442.762445141	60.293830166
2	539797	536.449851772	93.687406631
2	557095	551.132598212	14.68274644
2	715875	684.993743268	133.861145056
2	982571	910.03077188	225.037028612
2	1208508	1099.889579299	189.858807419
2	1213847	1104.496370749	4.60679145
2	1293757	1170.795940599	66.29956985
2	1442687	1293.496999405	122.701058806
2	1501661	1341.765713358	48.268713953
2	1532206	1366.448772464	24.683059106
2	1682327	1488.289673478	121.840901014
2	1705554	1507.24608624	18.956412762
2	1797238	1581.141508787	73.895422547
2	1814970	1595.436405806	14.294897019
2	1859029	1630.403750609	34.967344803
2	1864984	1635.16804137	4.764290761
2	1900300	1662.710648357	27.542606987
2	1905478	1666.653764423	3.943116066
2	2186090	1884.716909078	218.063144655
2	2220304	1910.968377132	26.251468054
2	2444718	2083.248289141	172.279912009
2	2485530	2114.294927765	31.046638624
2	2506335	2129.932927828	15.638000063
2	2524482	2143.708656311	13.775728483
2	2707535	2280.455782004	136.747125693
2	2708786	2281.393229651	0.937447647
2	2753575	2314.78855182	33.395322169
2	2788717	2340.440395534	25.651843714
2	2809054	2355.444836013	15.004440479
2	2923873	2438.920111693	83.47527568
2	2943537	2453.093340269	14.173228576
2	2967235	2470.005333593	16.911993324
2	3001730	2494.693633843	24.68830025
2	3242167	2668.550475034	173.856841191
2	3363300	2756.288076466	87.737601432
2	3446432	2816.17197674	59.883900274
2	3446920	2816.436438855	0.264462115
2	3450088	2818.667885249	2.231446394
2	3497304	2852.169069901	33.501184652
2	3593987	2920.438222963	68.269153062
2	3719959	3008.907412266	88.469189303
2	3838944	3092.615494701	83.708082435
2	3849449	3099.919112152	7.303617451
2	3898930	3134.467144813	34.548032661
2	3969954	3183.704276217	49.237131404
2	4050632	3238.780752787	55.07647657
2	4113675	3281.198526551	42.417773764
2	4181086	3326.85617733	45.657650779
2	4186151	3330.159949762	3.303772432
2	4216501	3350.376725902	20.21677614
2	4253611	3375.120417738	24.743691836
2	4404313	3475.287447187	100.167029449
2	4546926	3569.46823278	94.180785593
2	4547461	3569.859232012	0.390999232
2	4566969	3582.465550676	12.606318664
2	4661366	3644.134418195	61.668867519
2	4848062	3765.620991194	121.486572999
2	4866428	3777.580341794	11.9593506
2	4945339	3828.364676911	50.784335117
2	5022845	3878.191918619	49.827241708
2	5026893	3880.781362836	2.589444217
2	5033937	3885.132319925	4.350957089
2	5194448	3987.150366632	102.018046707
2	5195459	3987.83572148	0.685354848
2	5288398	4046.177915989	58.342194509
2	5584782	4231.246204301	185.068288312
2	5612631	4248.437000758	17.190796457
2	5620407	4253.250516308	4.81351555
2	5944959	4446.912312944	193.661796636
2	5981937	4468.07733342	21.165020476
2	6044898	4503.583369449	35.506036029
2	6069758	4517.705027213	14.121657764
2	6198249	4589.720472451	72.015445238
2	6385100	4694.652862843	104.932390392
2	6559025	4791.743826691	97.090963848
2	6571346	4798.635325063	6.891498372
2	6577912	4802.174319393	3.53899433
2	6594022	4811.098666101	8.924346708
2	6621564	4826.334039461	15.23537336
2	6667993	4851.874012531	25.53997307
2	6740184	4891.47709736	39.603084829
2	7034168	5051.816761674	160.339664314
2	7081504	5077.496672755	25.679911081
2	7642516	5383.934271716	306.437598961
2	7745096	5439.963662801	56.029391085
2	7955755	5554.473653447	114.509990646
2	8081739	5622.815359076	68.341705629
2	8313695	5747.711606269	124.896247193
2	8588957	5895.494287711	147.782681442
2	8733902	5973.126779739	77.632492028
2	8798021	6007.114938123	33.988158384
2	8800140	6008.278037153	1.16309903
2	8897725	6059.737325352	51.459288199
2	8966292	6095.969978539	36.232653187
2	9028729	6129.131993248	33.162014709
2	9216985	6229.834614159	100.702620911
2	9679502	6475.705594817	245.870980658
2	9726200	6500.348734011	24.643139194
2	9905588	6594.847331516	94.498597505
2	10046616	6668.908938631	74.061607115
2	10048015	6669.66701471	0.758076079
2	10076090	6684.205599939	14.538585229
2	10187726	6742.112751345	57.907151406
2	10317226	6808.388260823	66.275509478
2	10449094	6875.855761715	67.467500892
2	10700599	7004.054913093	128.199151378
2	10766547	7037.417942774	33.363029681
2	10888774	7099.521484215	62.103541441
2	10967198	7139.217212534	39.695728319
2	11046012	7178.957449999	39.740237465
2	11216979	7264.663203837	85.705753838
2	11364818	7341.513090449	76.849886612
3	140667	195.193555343	195.193555343
3	226240	266.865946968	71.672391625
3	228450	268.676052246	1.810105278
3	288724	319.81027836	51.134226114
3	447258	456.526702986	136.716424626
3	503526	504.922615724	48.395912738
3	504529	505.86134722	0.938731496
3	507528	508.240153894	2.378806674
3	508430	509.014498547	0.774344653
3	546077	541.685605184	32.671106637
3	596586	584.052204706	42.366599522
3	625156	608.634301028	24.582096322
3	780612	739.357451617	130.723150589
3	844158	792.940155688	53.582704071
3	984616	911.719459691	118.779304003
3	1081239	992.66603978	80.946580089
3	1089294	999.272378886	6.606339106
3	1104263	1011.959330304	12.686951418
3	1260568	1143.219190644	131.25986034
3	1291394	1168.769307759	25.550117115
3	1383777	1244.697146659	75.9278389
3	1505220	1344.700067335	100.002920676
3	1514032	1351.887974532	7.187907197
3	1551183	1382.092743655	30.204769123
3	1610554	1430.024257516	47.931513861
3	1666477	1475.61238283	45.588125314
3	1697442	1500.696677587	25.084294757
3	1762503	1552.92451359	52.227836003
3	1910673	1670.744600883	117.820087293
3	2003192	1742.728340957	71.983740074
3	2065843	1791.253167922	48.524826965
3	2393534	2043.763997223	252.510829301
3	2518955	2139.632012684	95.868015461
3	2590328	2192.918240643	53.286227959
3	2611442	2208.715689356	15.797448713
3	2707013	2280.083186407	71.367497051
3	2757256	2317.521641031	37.438454624
3	2799551	2348.429684068	30.908043037
3	3027735	2513.20690566	164.777221592
3	3098070	2563.273127757	50.066222097
3	3128946	2586.528419698	23.255291941
3	3158760	2607.783439795	21.255020097
3	3343936	2742.22021375	134.436773955
3	3512398	2862.798736959	120.578523209
3	3533784	2877.822150307	15.023413348
3	3568047	2902.113659229	24.291508922
3	3593995	2920.438222963	18.324563734
3	3638930	2951.985599522	31.547376559
3	3694187	2990.990786768	39.005187246
3	3699194	2994.649788099	3.659001331
3	3743976	3025.96107541	31.311287311
3	3747942	3028.765491836	2.804416426
3	3770031	3044.064214024	15.298722188
3	3809225	3071.65992183	27.595707806
3	3893279	3130.410953424	58.751031594
3	3901778	3136.504745126	6.093791702
3	4036677	3229.027620628	92.522875502
3	4205982	3343.205330446	114.177709818
3	4342846	3434.265714238	91.060383792
3	4354036	3441.730563402	7.464849164
3	4381427	3459.890285864	18.159722462
3	4850951	3767.409189937	307.518904073
3	4902744	3801.053917829	33.644727892
3	5033945	3885.132319925	84.078402096
3	5052032	3896.611793577	11.479473652
3	5077165	3912.716344044	16.104550467
3	5150487	3959.160202545	46.443858501
3	5208817	3996.186762922	37.026560377
3	5236239	4013.177029424	16.990266502
3	5535860	4200.598195311	187.421165887
3	5605626	4244.156975273	43.558779962
3	5721882	4315.606473765	71.449498492
3	5735352	4324.080810915	8.47433715
3	5768296	4344.96418556	20.883374645
3	5896041	4418.664039008	73.699853448
3	5938569	4443.164878906	24.500839898
3	6080175	4523.556976611	80.392097705
3	6111360	4540.936107316	17.379130705
3	6393738	4699.389625295	158.453517979
3	6420429	4714.308054352	14.918429057
3	6494874	4756.012419094	41.704364742
3	6595363	4811.856644635	55.844225541
3	6629140	4830.536129229	18.679484594
3	6730998	4886.389395151	55.853265922
3	6756430	4900.185258231	13.79586308
3	6996833	5031.456691116	131.271432885
3	7087312	5080.55992342	49.103232304
3	7097539	5086.072013448	5.512090028
3	7222813	5154.575371699	68.503358251
3	7693469	5411.576487296	257.001115597
3	7798795	5468.956698024	57.380210728
3	7892832	5520.130418953	51.173720929
3	7966964	5560.554433972	40.424015019
3	7980897	5567.955732802	7.40129883
3	8407847	5798.427754533	230.472021731
3	8635844	5920.702834369	122.275079836
3	8940292	6082.101071621	161.398237252
3	8945318	6084.824990637	2.723919016
3	9295525	6271.694462678	186.869472041
3	9645838	6457.886368879	186.191906201
3	9875176	6578.901891846	121.015522967
3	9907824	6596.015315169	17.113423323
3	10012556	6651.074598649	55.05928348
3	10113994	6703.924941661	52.850343012
3	10118497	6706.296977684	2.372036023
3	10401267	6851.402929847	145.105952163
3	10700607	7004.054913093	152.651983246
3	10747721	7027.976334826	23.921421733
3	10811097	7060.179911425	32.203576599
3	11005755	7158.546851002	98.366939577
3	11197531	7254.96264575	96.415794748
3	11201382	7256.879296467	1.916650717
3	11205149	7258.673914463	1.794617996
3	11342870	7330.290647145	71.616732682
4	146588	200	152
4	205467	250	151
4	265106	300	149
4	323351	350	148
4	381468	400	149
4	439606	450	150
4	497451	500	149
4	555697	550	146
4	615056	600	145
4	674393	650	144
4	734082	700	145
4	793608	750	145
4	852473	800	144
4	911530	850	143
4	970797	900	143
4	1030536	950	143
4	1090159	1000	143
4	1149109	1050	140
4	1208654	1100	141
4	1268734	1150	142
4	1329170	1200	141
4	1390206	1250	141
4	1450773	1300	141
4	1511622	1350	142
4	1573282	1400	140
4	1634714	1450	139
4	1696544	1500	139
4	1758962	1550	139
4	1820881	1600	140
4	1883711	1650	142
4	1947967	1700	143
4	2012429	1750	143
4	2077112	1800	142
4	2141510	1850	141
4	2205830	1900	142
4	2271012	1950	143
4	2336215	2000	143
4	2401519	2050	143
4	2467126	2100	143
4	2533053	2150	146
4	2599551	2200	145
4	2666647	2250	143
4	2733550	2300	144
4	2801716	2350	145
4	2870518	2400	145
4	2939240	2450	146
4	3009126	2500	149
4	3079554	2550	148
4	3147856	2600	147
4	3216792	2650	145
4	3285772	2700	146
4	3354455	2750	146
4	3424083	2800	146
4	3494311	2850	149
4	3565101	2900	148
4	3636160	2950	147
4	3707055	3000	146
4	3778295	3050	143
4	3849585	3100	143
4	3921190	3150	143
4	3994000	3200	143
4	4067668	3250	143
4	4141193	3300	144
4	4215958	3350	146
4	4291216	3400	147
4	4366422	3450	146
4	4441787	3500	145
4	4517359	3550	145
4	4593312	3600	148
4	4670281	3650	149
4	4746969	3700	149
4	4823720	3750	149
4	4901081	3800	150
4	4978771	3850	150
4	5057271	3900	153
4	5136264	3950	150
4	5214960	4000	151
4	5294692	4050	150
4	5374523	4100	150
4	5454442	4150	150
4	5534843	4200	150
4	5615096	4250	151
4	5696111	4300	151
4	5776702	4350	149
4	5863456	4400	148
4	5950194	4450	148
4	6038672	4500	148
4	6127490	4550	149
4	6216669	4600	149
4	6305734	4650	149
4	6394846	4700	150
4	6484331	4750	148
4	6573857	4800	149
4	6664523	4850	150
4	6756026	4900	152
4	6847238	4950	150
4	6939061	5000	150
4	7030861	5050	149
4	7123314	5100	150
4	7214516	5150	149
4	7305846	5200	148
4	7397208	5250	148
4	7488759	5300	148
4	7580525	5350	148
4	7672083	5400	149
4	7763926	5450	149
4	7855556	5500	148
4	7947469	5550	147
4	8039847	5600	146
4	8132400	5650	147
4	8225027	5700	147
4	8318065	5750	148
4	8410869	5800	148
4	8503993	5850	147
4	8597379	5900	148
4	8690779	5950	147
4	8784736	6000	148
4	8879220	6050	150
4	8974078	6100	150
4	9067561	6150	151
4	9161278	6200	151
4	9254909	6250	152
4	9348789	6300	151
4	9442807	6350	151
4	9536795	6400	151
4	9631204	6450	151
4	9725415	6500	151
4	9820344	6550	152
4	9915498	6600	152
4	10010438	6650	151
4	10106376	6700	153
4	10203074	6750	152
4	10300697	6800	152
4	10398522	6850	153
4	10496447	6900	153
4	10594497	6950	153
4	10692678	7000	153
4	10791163	7050	153
4	10889708	7100	153
4	10988683	7150	154
4	11088106	7200	154
4	11187654	7250	154
4	11284250	7300	152
