version 2
run HStreamingChurn-0-20140414-13:29:04-8428
attr configname HStreamingChurn
attr datetime 20140414-13:29:04
attr experiment HStreamingChurn
attr inifile htopology.ini
attr iterationvars ""
attr iterationvars2 $repetition=0
attr measurement ""
attr network oversim.underlay.simpleunderlay.SimpleUnderlayNetwork
attr processid 8428
attr repetition 0
attr replication #0
attr resultdir results
attr runnumber 0
attr seedset 0

vector 1  SimpleUnderlayNetwork.globalObserver.globalStatistics  "GlobalNodeList: Number of nodes"  ETV
1	38463	100	101
1	77176	150	101
1	115936	200	101
1	154723	250	101
1	193961	300	101
1	233153	350	101
1	272314	400	101
1	311044	450	101
1	349633	500	101
1	388773	550	101
1	427942	600	101
1	467148	650	101
1	506221	700	101
1	544807	750	101
1	583652	800	101
1	622785	850	101
1	661949	900	101
1	701154	950	101
1	740028	1000	101
1	778667	1050	101
1	817508	1100	101
1	856686	1150	101
1	895873	1200	101
1	935005	1250	101
1	973938	1300	101
1	1012488	1350	101
1	1051570	1400	101
1	1090736	1450	101
1	1129770	1500	101
1	1168963	1550	101
1	1207704	1600	101
1	1246441	1650	101
1	1285560	1700	101
1	1324732	1750	101
1	1363781	1800	101
1	1402878	1850	101
1	1441346	1900	101
1	1480441	1950	101
1	1519461	2000	101
1	1558750	2050	101
1	1597752	2100	101
1	1636757	2150	101
1	1675211	2200	101
1	1714298	2250	101
1	1753417	2300	101
1	1792474	2350	101
1	1831641	2400	101
1	1870439	2450	101
1	1909228	2500	101
1	1948356	2550	101
1	1987481	2600	101
1	2026551	2650	101
1	2065672	2700	101
1	2104299	2750	101
1	2143115	2800	101
1	2182364	2850	101
1	2221542	2900	101
1	2260498	2950	101
1	2299571	3000	101
1	2338032	3050	101
1	2377133	3100	101
1	2416196	3150	101
1	2455336	3200	101
1	2494271	3250	101
1	2533350	3300	101
1	2571969	3350	101
1	2611176	3400	101
1	2650151	3450	101
1	2689192	3500	101
1	2728331	3550	101
1	2766995	3600	101
1	2805998	3650	101
1	2845091	3700	101
1	2884276	3750	101
1	2923166	3800	101
1	2962337	3850	101
1	3000924	3900	101
1	3039930	3950	101
1	3078992	4000	101
1	3118254	4050	101
1	3157125	4100	101
1	3196109	4150	101
1	3234729	4200	101
1	3273918	4250	101
1	3312934	4300	101
1	3352135	4350	101
1	3391007	4400	101
1	3429934	4450	101
1	3468749	4500	101
1	3507877	4550	101
1	3546942	4600	101
1	3585888	4650	101
1	3624953	4700	101
1	3663658	4750	101
1	3702811	4800	101
1	3741767	4850	101
1	3781062	4900	101
1	3819868	4950	101
1	3858885	5000	101
1	3897571	5050	101
1	3936706	5100	101
1	3975782	5150	101
1	4014783	5200	101
1	4053728	5250	101
1	4092715	5300	101
1	4131575	5350	101
1	4170647	5400	101
1	4209797	5450	101
1	4248706	5500	101
1	4287581	5550	101
1	4326440	5600	101
1	4365514	5650	101
1	4404668	5700	101
1	4443730	5750	101
1	4482540	5800	101
1	4521500	5850	101
1	4560377	5900	101
1	4599494	5950	101
1	4638612	6000	101
1	4677553	6050	101
1	4716447	6100	101
1	4755455	6150	101
1	4794346	6200	101
1	4833495	6250	101
1	4872658	6300	101
1	4911473	6350	101
1	4950271	6400	101
1	4989325	6450	101
1	5028461	6500	101
1	5067436	6550	101
1	5106477	6600	101
1	5145328	6650	101
1	5184169	6700	101
1	5223299	6750	101
1	5262379	6800	101
1	5301504	6850	101
1	5340373	6900	101
1	5379078	6950	101
1	5418147	7000	101
1	5457139	7050	101
1	5496219	7100	101
1	5535357	7150	101
1	5574220	7200	101
1	5612917	7250	101
