version 2
run HStreamingChurn-0-20140327-16:38:17-11220
attr configname HStreamingChurn
attr datetime 20140327-16:38:17
attr experiment HStreamingChurn
attr inifile htopology.ini
attr iterationvars ""
attr iterationvars2 $repetition=0
attr measurement ""
attr network oversim.underlay.simpleunderlay.SimpleUnderlayNetwork
attr processid 11220
attr repetition 0
attr replication #0
attr resultdir results
attr runnumber 0
attr seedset 0

vector 1  SimpleUnderlayNetwork.globalObserver.globalStatistics  "GlobalNodeList: Number of nodes"  ETV
vector 2  SimpleUnderlayNetwork.globalObserver.globalStatistics  "ParetoChurn: Session Time"  ETV
vector 3  SimpleUnderlayNetwork.globalObserver.globalStatistics  "ParetoChurn: Time between creates"  ETV
vector 4  SimpleUnderlayNetwork.globalObserver.globalStatistics  "ParetoChurn: Time between deletes"  ETV
1	8450	50	41
1	20746	100	41
1	32959	150	41
1	45231	200	42
1	57755	250	42
1	70213	300	41
1	82601	350	41
1	95015	400	41
1	107329	450	41
1	119654	500	41
1	131981	550	41
1	144377	600	41
1	157086	650	43
1	170041	700	43
1	182961	750	43
1	195798	800	42
1	208404	850	41
1	220995	900	41
1	233599	950	41
1	246130	1000	41
1	258663	1050	41
1	271183	1100	41
1	283733	1150	41
1	296324	1200	41
1	308909	1250	41
1	321418	1300	41
1	333967	1350	41
1	346658	1400	42
1	359503	1450	42
1	372399	1500	42
1	385288	1550	42
1	398114	1600	42
1	410971	1650	42
1	423817	1700	42
1	436690	1750	42
1	448445	1800	41
1	459824	1850	41
1	471153	1900	41
1	482513	1950	41
1	493854	2000	41
1	505243	2050	41
1	516529	2100	40
1	527704	2150	40
1	538841	2200	40
1	549988	2250	40
1	561128	2300	40
1	572220	2350	39
1	583171	2400	39
1	594104	2450	39
1	605069	2500	39
1	616019	2550	39
1	626953	2600	39
1	637778	2650	38
1	648556	2700	38
1	659280	2750	38
1	670025	2800	38
1	680741	2850	38
1	691486	2900	38
1	702244	2950	38
1	713261	3000	39
1	724317	3050	39
1	735376	3100	39
1	746410	3150	39
1	757448	3200	39
1	768508	3250	39
1	779558	3300	39
1	790624	3350	39
1	801599	3400	38
1	812424	3450	38
1	823224	3500	37
1	833867	3550	37
1	844513	3600	37
1	855154	3650	37
1	865792	3700	37
1	876398	3750	37
1	887028	3800	37
1	897615	3850	36
1	908045	3900	36
1	918772	3950	37
1	929391	4000	36
1	939889	4050	36
1	950527	4100	37
1	961366	4150	37
1	972193	4200	37
1	982980	4250	36
1	993596	4300	36
1	1004206	4350	36
1	1014824	4400	36
1	1025443	4450	36
1	1036094	4500	36
1	1046717	4550	36
1	1057325	4600	36
1	1067940	4650	36
1	1078567	4700	36
1	1089195	4750	36
1	1099831	4800	36
1	1110478	4850	36
1	1120916	4900	35
1	1131299	4950	35
1	1141309	5000	34
1	1151146	5050	34
1	1160977	5100	34
1	1170784	5150	34
1	1180586	5200	34
1	1190375	5250	34
1	1200333	5300	35
1	1210473	5350	35
1	1220604	5400	35
1	1230714	5450	35
1	1241069	5500	36
1	1251797	5550	37
1	1262558	5600	37
1	1273515	5650	38
1	1284561	5700	38
1	1295589	5750	38
1	1306601	5800	38
1	1317656	5850	38
1	1328720	5900	38
1	1339754	5950	38
1	1350818	6000	38
1	1361861	6050	38
1	1373179	6100	39
1	1384560	6150	39
1	1395928	6200	39
1	1407211	6250	38
1	1418442	6300	38
1	1429589	6350	38
1	1440730	6400	38
1	1451908	6450	38
1	1463069	6500	38
1	1474197	6550	37
1	1485246	6600	37
1	1496321	6650	37
1	1507359	6700	37
1	1518606	6750	38
1	1529964	6800	38
1	1541454	6850	39
1	1553119	6900	39
1	1564866	6950	40
1	1576842	7000	40
1	1588839	7050	40
1	1601124	7100	41
1	1613434	7150	41
1	1625811	7200	41
2	44517	197.351427089	71.441265516429
2	82626	350.038273865	418.9771091045
2	147491	612.822196068	7993.3551842279
2	154837	641.453510919	15992.622297124
2	341584	1380.260752321	2113.5085496476
2	476682	1924.201607962	694.5062513943
2	704661	2961.263769258	8492.6534497684
2	909854	3908.736414089	67.656236858565
2	948384	4090.222447333	773.75280832512
2	1197255	5284.863028844	12371.90339524
2	1233604	5464.300803641	2644.6723268848
2	1242146	5505.098705046	1009.2096118195
2	1267113	5621.443988842	12291.282055462
2	1362333	6052.122686821	1462.3146316135
2	1408182	6254.391718994	9363.5155511167
2	1467389	6519.642125154	7254.5142900581
2	1513217	6726.516026813	3376.151225507
2	1537709	6834.144114986	423.25351192497
2	1562542	6940.573479259	69520.383632257
2	1589398	7052.491476871	1582.7607414771
2	1621533	7182.965066755	521.3558718886
3	44517	197.351427089	158.455517983
3	82626	350.038273865	152.686846776
3	147491	612.822196068	262.783922203
3	154837	641.453510919	28.631314851
3	341584	1380.260752321	738.807241402
3	476682	1924.201607962	543.940855641
3	704661	2961.263769258	1037.062161296
3	909854	3908.736414089	947.472644831
3	948384	4090.222447333	181.486033244
3	1197255	5284.863028844	1194.640581511
3	1233604	5464.300803641	179.437774797
3	1242146	5505.098705046	40.797901405
3	1267113	5621.443988842	116.345283796
3	1362333	6052.122686821	430.678697979
3	1408182	6254.391718994	202.269032173
3	1467389	6519.642125154	265.25040616
3	1513217	6726.516026813	206.873901659
3	1537709	6834.144114986	107.628088173
3	1562542	6940.573479259	106.429364273
3	1589398	7052.491476871	111.917997612
3	1621533	7182.965066755	130.473589884
4	58686	253.792692605	253.792692605
4	81028	343.597122365	89.80442976
4	184041	754.015382969	410.418260604
4	198454	810.273234881	56.257851912
4	435787	1746.455524262	936.182289381
4	473341	1909.563832158	163.108307896
4	508979	2066.464791443	156.900959285
4	564321	2314.116386658	247.651595215
4	627740	2603.707859356	289.591472698
4	794410	3367.142426058	763.434566702
4	818644	3478.769301968	111.62687591
4	891583	3821.432496562	342.663194594
4	921168	3961.392650947	139.960154385
4	977180	4223.037689682	261.645038735
4	1110239	4848.975255658	625.937565976
4	1131537	4951.210262245	102.235006587
4	1400037	6218.194418622	1266.984156377
4	1408080	6253.849102798	35.654684176
4	1462915	6499.308316865	245.459214067
4	1467341	6519.383326416	20.075009551
4	1620812	7180.069149714	660.685823298
