version 2
run HStreamingChurn-0-20140402-22:30:33-4236
attr configname HStreamingChurn
attr datetime 20140402-22:30:33
attr experiment HStreamingChurn
attr inifile htopology.ini
attr iterationvars ""
attr iterationvars2 $repetition=0
attr measurement ""
attr network oversim.underlay.simpleunderlay.SimpleUnderlayNetwork
attr processid 4236
attr repetition 0
attr replication #0
attr resultdir results
attr runnumber 0
attr seedset 0

vector 1  SimpleUnderlayNetwork.globalObserver.globalStatistics  "ParetoChurn: Session Time"  ETV
vector 2  SimpleUnderlayNetwork.globalObserver.globalStatistics  "ParetoChurn: Time between creates"  ETV
vector 3  SimpleUnderlayNetwork.globalObserver.globalStatistics  "GlobalNodeList: Number of nodes"  ETV
vector 4  SimpleUnderlayNetwork.globalObserver.globalStatistics  "ParetoChurn: Time between deletes"  ETV
1	60381	144.074201019	4049.3225882539
1	316516	570.666384515	13409.189214422
1	336827	604.889275726	61.907854005359
1	347621	622.796629741	17250.020190509
1	412973	730.528348663	6831.3114360377
1	445225	783.913080109	494.21034680042
1	565958	982.671835603	1980.5944930496
1	693719	1190.452510686	3602.1912972883
1	704931	1208.887488325	1718.4261858673
1	785055	1341.296647645	5586.1685705549
1	832664	1421.930635339	2677.7067468528
1	878893	1499.698838664	17292.953464885
1	929187	1583.408715719	193.61566123786
1	938387	1598.46805567	913.31849326315
1	942247	1604.661914796	39501.039419564
1	975621	1658.514508405	370.00864688889
1	983133	1670.532420039	532.6059338358
1	995051	1689.69206605	7188.5093395891
1	1050779	1777.827759497	2172.394932156
1	1104965	1862.663588234	138.82275898644
1	1207258	2021.747200361	5602.3989782111
1	1208045	2022.901609956	1946.4617813114
1	1341836	2227.023994251	4498.5131215153
1	1450440	2391.056628117	25445.367341895
1	1452131	2393.51807536	3176.012145907
1	1502698	2468.508995681	6.0637786800093
1	1578331	2579.843779034	2201.51516898
1	1616867	2636.645023918	2375.155432725
1	1756032	2841.326132797	38.438919951126
1	1995780	3191.101523423	3392.7051038441
1	2002331	3200.545541966	5776.2941800776
1	2160911	3427.817225905	6426.0294705337
1	2414976	3788.496081173	39098.211363025
1	2656510	4128.22151836	126.62847694602
1	2774730	4293.348552463	462.16391037632
1	2796981	4324.138689788	1932.5131894587
1	2933478	4511.449540603	3433.4082737548
1	2959412	4546.758400755	2613.5577904658
1	2997607	4598.175239966	2181.6727050994
1	3034332	4647.318223915	121.31755125733
1	3058303	4679.112466355	26759.435641651
1	3112302	4750.128587266	17638.461992237
1	3159537	4812.132787877	675.04943795323
1	3299994	4990.082211856	7715.7036081504
1	3341299	5042.057519814	1723.2044443941
1	3399854	5115.142910636	4969.391765157
1	3645693	5419.646454589	49937.887438728
1	3837992	5656.148465503	43588.414981015
1	4095617	5963.474935814	699.25371936714
1	4252997	6149.18476588	2408.6390968872
1	4382643	6300.128047075	3290.0568871846
1	4571618	6520.142571052	525.28370414222
1	4592465	6544.206681407	47306.653128966
1	4700796	6669.525672082	2422.3666779297
1	4774309	6754.323698883	11465.816306569
1	4981493	6991.89676488	19041.90638591
1	4999097	7011.988482217	2047.7370797663
1	5031412	7048.762181552	1603.5940872935
1	5083761	7107.853694268	154.68444851058
1	5100298	7126.320179271	9542.2902520993
1	5151615	7183.46246265	388.59557090872
2	60381	144.074201019	45.269925976
2	316516	570.666384515	426.592183496
2	336827	604.889275726	34.222891211
2	347621	622.796629741	17.907354015
2	412973	730.528348663	107.731718922
2	445225	783.913080109	53.384731446
2	565958	982.671835603	198.758755494
2	693719	1190.452510686	207.780675083
2	704931	1208.887488325	18.434977639
2	785055	1341.296647645	132.40915932
2	832664	1421.930635339	80.633987694
2	878893	1499.698838664	77.768203325
2	929187	1583.408715719	83.709877055
2	938387	1598.46805567	15.059339951
2	942247	1604.661914796	6.193859126
2	975621	1658.514508405	53.852593609
2	983133	1670.532420039	12.017911634
2	995051	1689.69206605	19.159646011
2	1050779	1777.827759497	88.135693447
2	1104965	1862.663588234	84.835828737
2	1207258	2021.747200361	159.083612127
2	1208045	2022.901609956	1.154409595
2	1341836	2227.023994251	204.122384295
2	1450440	2391.056628117	164.032633866
2	1452131	2393.51807536	2.461447243
2	1502698	2468.508995681	74.990920321
2	1578331	2579.843779034	111.334783353
2	1616867	2636.645023918	56.801244884
2	1756032	2841.326132797	204.681108879
2	1995780	3191.101523423	349.775390626
2	2002331	3200.545541966	9.444018543
2	2160911	3427.817225905	227.271683939
2	2414976	3788.496081173	360.678855268
2	2656510	4128.22151836	339.725437187
2	2774730	4293.348552463	165.127034103
2	2796981	4324.138689788	30.790137325
2	2933478	4511.449540603	187.310850815
2	2959412	4546.758400755	35.308860152
2	2997607	4598.175239966	51.416839211
2	3034332	4647.318223915	49.142983949
2	3058303	4679.112466355	31.79424244
2	3112302	4750.128587266	71.016120911
2	3159537	4812.132787877	62.004200611
2	3299994	4990.082211856	177.949423979
2	3341299	5042.057519814	51.975307958
2	3399854	5115.142910636	73.085390822
2	3645693	5419.646454589	304.503543953
2	3837992	5656.148465503	236.502010914
2	4095617	5963.474935814	307.326470311
2	4252997	6149.18476588	185.709830066
2	4382643	6300.128047075	150.943281195
2	4571618	6520.142571052	220.014523977
2	4592465	6544.206681407	24.064110355
2	4700796	6669.525672082	125.318990675
2	4774309	6754.323698883	84.798026801
2	4981493	6991.89676488	237.573065997
2	4999097	7011.988482217	20.091717337
2	5031412	7048.762181552	36.773699335
2	5083761	7107.853694268	59.091512716
2	5100298	7126.320179271	18.466485003
2	5151615	7183.46246265	57.142283379
3	64194	150	102
3	95292	200	102
3	126464	250	102
3	156711	300	100
3	186334	350	99
3	216037	400	99
3	245524	450	97
3	274882	500	97
3	304265	550	96
3	333918	600	97
3	364208	650	99
3	394576	700	98
3	424944	750	98
3	454973	800	98
3	485378	850	98
3	515781	900	98
3	546240	950	98
3	576657	1000	98
3	607554	1050	98
3	638462	1100	98
3	669078	1150	97
3	699545	1200	98
3	730470	1250	97
3	761067	1300	94
3	790276	1350	94
3	819678	1400	94
3	849259	1450	94
3	879101	1500	94
3	909222	1550	93
3	939402	1600	95
3	970294	1650	96
3	1001585	1700	98
3	1033233	1750	98
3	1064978	1800	98
3	1096862	1850	98
3	1128889	1900	98
3	1161061	1950	98
3	1193254	2000	98
3	1225810	2050	98
3	1258639	2100	98
3	1291436	2150	98
3	1324072	2200	97
3	1356976	2250	97
3	1390092	2300	97
3	1423264	2350	97
3	1456507	2400	99
3	1490170	2450	99
3	1524031	2500	99
3	1558014	2550	98
3	1592058	2600	98
3	1625937	2650	98
3	1659959	2700	97
3	1693916	2750	97
3	1727895	2800	97
3	1761991	2850	98
3	1796274	2900	97
3	1830558	2950	96
3	1864785	3000	95
3	1899005	3050	95
3	1933295	3100	95
3	1967593	3150	95
3	2001966	3200	96
3	2036880	3250	97
3	2071741	3300	97
3	2106530	3350	95
3	2141445	3400	95
3	2176527	3450	95
3	2211678	3500	95
3	2246851	3550	95
3	2281998	3600	94
3	2317251	3650	94
3	2352515	3700	94
3	2387835	3750	94
3	2423214	3800	95
3	2458816	3850	95
3	2494356	3900	95
3	2529928	3950	95
3	2565354	4000	93
3	2600940	4050	93
3	2636493	4100	92
3	2672178	4150	93
3	2707847	4200	90
3	2743688	4250	90
3	2779570	4300	90
3	2815914	4350	91
3	2852337	4400	91
3	2888697	4450	89
3	2925120	4500	89
3	2961886	4550	91
3	2999009	4600	92
3	3036400	4650	93
3	3074257	4700	94
3	3112214	4750	94
3	3150186	4800	90
3	3189450	4850	91
3	3228923	4900	91
3	3268344	4950	91
3	3307987	5000	92
3	3347695	5050	92
3	3387741	5100	92
3	3428051	5150	92
3	3468358	5200	92
3	3508774	5250	92
3	3549139	5300	92
3	3589492	5350	92
3	3629846	5400	92
3	3670450	5450	93
3	3711030	5500	92
3	3751743	5550	92
3	3792376	5600	91
3	3832964	5650	91
3	3873949	5700	92
3	3914898	5750	92
3	3957132	5800	90
3	3999539	5850	90
3	4041887	5900	90
3	4084226	5950	90
3	4126572	6000	91
3	4168932	6050	91
3	4211328	6100	91
3	4253718	6150	92
3	4296652	6200	92
3	4339631	6250	92
3	4382550	6300	90
3	4425457	6350	91
3	4468445	6400	91
3	4511356	6450	91
3	4554358	6500	91
3	4597525	6550	93
3	4640936	6600	92
3	4683994	6650	92
3	4727234	6700	92
3	4770548	6750	91
3	4813911	6800	89
3	4857604	6850	89
3	4901492	6900	89
3	4945105	6950	86
3	4988617	7000	86
3	5032554	7050	87
3	5076833	7100	87
3	5121579	7150	89
3	5166537	7200	89
3	5211444	7250	89
4	127880	252.340131552	252.340131552
4	134161	262.294315032	9.95418348
4	150347	289.171277136	26.876962104
4	228905	421.89176657	132.720489434
4	235302	432.70296378	10.81119721
4	290269	525.907154218	93.204190438
4	365336	651.797129731	125.889975513
4	408669	723.432101989	71.634972258
4	418494	739.547100444	16.114998455
4	566602	983.700897653	244.153797209
4	637676	1098.708976032	115.008078379
4	702315	1204.554411418	105.845435386
4	712064	1220.396201565	15.841790147
4	722169	1236.596721791	16.200520226
4	738472	1263.123426909	26.526705118
4	747620	1277.992371914	14.868945005
4	757760	1294.38361913	16.391247216
4	824728	1408.51362685	114.13000772
4	846741	1445.716549384	37.202922534
4	876243	1495.23889125	49.522341866
4	966986	1644.709259539	149.470368289
4	1040793	1762.024376956	117.315117417
4	1109971	1870.530541176	108.50616422
4	1184663	1986.48634722	115.955806044
4	1201932	2013.523155293	27.036808073
4	1290866	2149.183587883	135.66043259
4	1316224	2188.138353874	38.954765991
4	1502706	2468.508995681	280.370641807
4	1521844	2496.786548933	28.277553252
4	1578801	2580.408567577	83.622018644
4	1607617	2623.111156378	42.702588801
4	1643782	2676.324181042	53.213024664
4	1772111	2864.765052748	188.440871706
4	1804661	2912.313674192	47.548621444
4	1829358	2948.266328652	35.95265446
4	2081056	3313.278785485	365.012456833
4	2084886	3318.724648342	5.445862857
4	2164639	3433.174920393	114.450272051
4	2243843	3545.762355674	112.587435281
4	2519385	3935.222691652	389.460335978
4	2533005	3954.363391267	19.140699615
4	2625521	4084.637382191	130.273990924
4	2665523	4140.780256408	56.142874217
4	2687504	4171.49018066	30.709924252
4	2692435	4178.396789272	6.906608612
4	2736407	4239.849995306	61.453206034
4	2842600	4386.66203551	146.812040204
4	2862828	4414.381760693	27.719725183
4	3105022	4740.512462839	326.130702146
4	3115020	4753.635775172	13.123312333
4	3124711	4766.358948014	12.723172842
4	3133335	4777.643807974	11.28485996
4	3134053	4778.607860599	0.964052625
4	3305326	4996.800456643	218.192596044
4	3386122	5097.946262939	101.145806296
4	3688447	5472.18222583	374.235962891
4	3755379	5554.530221267	82.347995437
4	3904565	5737.3642148	182.833993533
4	3942182	5782.403273238	45.039058438
4	4332420	6241.651879246	459.248606008
4	4344194	6255.361969644	13.710090398
4	4613927	6568.806627267	313.444657623
4	4681987	6647.728655181	78.922027914
4	4736352	6710.537115766	62.808460585
4	4770774	6750.261964208	39.724848442
4	4783496	6764.847945065	14.585980857
4	4800451	6784.402796644	19.554851579
4	4888972	6885.793425732	101.390629088
4	4898558	6896.693225497	10.899799765
4	4912383	6912.465218199	15.771992702
4	4947805	6953.028638751	40.563420552
4	5015257	7030.426275194	77.397636443
4	5117297	7145.31619122	114.889916026
4	5209244	7247.538142778	102.221951558
