version 2
run HStreamingChurn-0-20140402-14:25:03-880
attr configname HStreamingChurn
attr datetime 20140402-14:25:03
attr experiment HStreamingChurn
attr inifile htopology.ini
attr iterationvars ""
attr iterationvars2 $repetition=0
attr measurement ""
attr network oversim.underlay.simpleunderlay.SimpleUnderlayNetwork
attr processid 880
attr repetition 0
attr replication #0
attr resultdir results
attr runnumber 0
attr seedset 0

vector 1  SimpleUnderlayNetwork.globalObserver.globalStatistics  "ParetoChurn: Session Time"  ETV
vector 2  SimpleUnderlayNetwork.globalObserver.globalStatistics  "ParetoChurn: Time between creates"  ETV
vector 3  SimpleUnderlayNetwork.globalObserver.globalStatistics  "GlobalNodeList: Number of nodes"  ETV
vector 4  SimpleUnderlayNetwork.globalObserver.globalStatistics  "ParetoChurn: Time between deletes"  ETV
1	61193	144.074201019	4049.3225882539
1	225279	405.112027592	11768.908090337
1	329269	570.666384515	13409.189214422
1	362038	622.796629741	17250.020190509
1	365467	628.081243001	200.66927333051
1	431347	730.528348663	6831.3114360377
1	465151	783.913080109	494.21034680042
1	514409	860.65709508	7915.693470898
1	722533	1190.452510686	3602.1912972883
1	745087	1226.701172221	9266.8586236858
1	812150	1341.296647645	5586.1685705549
1	826783	1367.570888665	6436.7463771058
1	837356	1386.989974535	95.255256485997
1	876904	1459.121670621	1438.377030308
1	984641	1658.514508405	370.00864688889
1	1001719	1689.69206605	7188.5093395891
1	1106889	1880.357161012	4743.7660273139
1	1186155	2021.747200361	5602.3989782111
1	1205485	2056.732450897	1583.0826745686
1	1282837	2194.322891971	2975.2667849897
1	1393943	2391.056628117	25445.367341895
1	1418898	2434.788396403	599.56513374219
1	1438324	2468.508995681	6.0637786800093
1	1502688	2579.843779034	2201.51516898
1	1532830	2636.645023918	2375.155432725
1	1639541	2841.326132797	38.438919951126
1	1760950	3072.811532697	9.1161690491952
1	1780541	3110.189318942	0.089242135360496
1	1827685	3200.545541966	5776.2941800776
1	1885874	3310.597810943	1387.4044044073
1	2013516	3550.551030704	719.83732303163
1	2051955	3622.803991008	22397.284396858
1	2083663	3681.738581537	1068.0710292672
1	2141183	3788.496081173	39098.211363025
1	2159399	3821.958653613	5336.0884644303
1	2177462	3854.901763284	1544.9699031397
1	2268617	4020.177544879	10132.26065802
1	2276636	4034.657873482	116.28319717159
1	2367127	4196.153327788	625.88607460898
1	2375868	4211.243187269	128.18865378468
1	2389433	4234.851510463	3211.3423958678
1	2560142	4536.218879218	2142.3740463485
1	2589579	4588.529182863	2448.7221858616
1	2611492	4627.021494046	369.49744887096
1	2682038	4750.128587266	17638.461992237
1	2778559	4922.046304571	454.74211549888
1	2844976	5042.057519814	1723.2044443941
1	2866469	5080.878389512	2896.092650147
1	2920900	5177.966697384	73.198203917832
1	2949171	5228.763985133	5178.3006068801
1	3006092	5330.030165699	531.95473424947
1	3015913	5347.600756918	852.27345839398
1	3047875	5404.450814375	33660.288879549
1	3083248	5466.723810948	3265.8176841273
1	3209224	5686.227168693	28094.565262897
1	3290669	5829.369638964	141.22057810731
1	3357237	5946.0555566	680.11334786928
1	3466919	6137.259284587	660.99562140761
1	3560979	6300.128047075	3290.0568871846
1	3596001	6360.385743149	13649.02472165
1	3607663	6380.055370531	2329.1169933396
1	3704983	6544.206681407	47306.653128966
1	3810745	6722.935634494	440.12279259207
1	3813181	6727.038796136	436.81749839869
1	3850686	6790.225359292	17186.599291221
1	4003040	7048.762181552	1603.5940872935
1	4048338	7126.320179271	9542.2902520993
2	61193	144.074201019	45.269925976
2	225279	405.112027592	261.037826573
2	329269	570.666384515	165.554356923
2	362038	622.796629741	52.130245226
2	365467	628.081243001	5.28461326
2	431347	730.528348663	102.447105662
2	465151	783.913080109	53.384731446
2	514409	860.65709508	76.744014971
2	722533	1190.452510686	329.795415606
2	745087	1226.701172221	36.248661535
2	812150	1341.296647645	114.595475424
2	826783	1367.570888665	26.27424102
2	837356	1386.989974535	19.41908587
2	876904	1459.121670621	72.131696086
2	984641	1658.514508405	199.392837784
2	1001719	1689.69206605	31.177557645
2	1106889	1880.357161012	190.665094962
2	1186155	2021.747200361	141.390039349
2	1205485	2056.732450897	34.985250536
2	1282837	2194.322891971	137.590441074
2	1393943	2391.056628117	196.733736146
2	1418898	2434.788396403	43.731768286
2	1438324	2468.508995681	33.720599278
2	1502688	2579.843779034	111.334783353
2	1532830	2636.645023918	56.801244884
2	1639541	2841.326132797	204.681108879
2	1760950	3072.811532697	231.4853999
2	1780541	3110.189318942	37.377786245
2	1827685	3200.545541966	90.356223024
2	1885874	3310.597810943	110.052268977
2	2013516	3550.551030704	239.953219761
2	2051955	3622.803991008	72.252960304
2	2083663	3681.738581537	58.934590529
2	2141183	3788.496081173	106.757499636
2	2159399	3821.958653613	33.46257244
2	2177462	3854.901763284	32.943109671
2	2268617	4020.177544879	165.275781595
2	2276636	4034.657873482	14.480328603
2	2367127	4196.153327788	161.495454306
2	2375868	4211.243187269	15.089859481
2	2389433	4234.851510463	23.608323194
2	2560142	4536.218879218	301.367368755
2	2589579	4588.529182863	52.310303645
2	2611492	4627.021494046	38.492311183
2	2682038	4750.128587266	123.10709322
2	2778559	4922.046304571	171.917717305
2	2844976	5042.057519814	120.011215243
2	2866469	5080.878389512	38.820869698
2	2920900	5177.966697384	97.088307872
2	2949171	5228.763985133	50.797287749
2	3006092	5330.030165699	101.266180566
2	3015913	5347.600756918	17.570591219
2	3047875	5404.450814375	56.850057457
2	3083248	5466.723810948	62.272996573
2	3209224	5686.227168693	219.503357745
2	3290669	5829.369638964	143.142470271
2	3357237	5946.0555566	116.685917636
2	3466919	6137.259284587	191.203727987
2	3560979	6300.128047075	162.868762488
2	3596001	6360.385743149	60.257696074
2	3607663	6380.055370531	19.669627382
2	3704983	6544.206681407	164.151310876
2	3810745	6722.935634494	178.728953087
2	3813181	6727.038796136	4.103161642
2	3850686	6790.225359292	63.186563156
2	4003040	7048.762181552	258.53682226
2	4048338	7126.320179271	77.557997719
3	65011	150	102
3	96500	200	102
3	128001	250	102
3	159381	300	100
3	190728	350	99
3	222115	400	99
3	253600	450	98
3	284825	500	98
3	316204	550	97
3	347718	600	98
3	379684	650	100
3	411876	700	100
3	443652	750	100
3	475464	800	100
3	507573	850	99
3	539861	900	100
3	572276	950	100
3	604498	1000	99
3	635590	1050	99
3	666670	1100	99
3	697248	1150	98
3	728454	1200	99
3	759769	1250	98
3	789969	1300	95
3	817020	1350	95
3	844468	1400	97
3	871932	1450	96
3	898620	1500	95
3	925394	1550	94
3	952688	1600	94
3	979906	1650	94
3	1007379	1700	95
3	1035034	1750	95
3	1062717	1800	95
3	1090327	1850	95
3	1117980	1900	95
3	1145889	1950	95
3	1173776	2000	95
3	1201819	2050	95
3	1229986	2100	96
3	1258110	2150	96
3	1286089	2200	96
3	1314308	2250	96
3	1342371	2300	96
3	1370695	2350	96
3	1399052	2400	97
3	1427710	2450	98
3	1456589	2500	98
3	1485388	2550	98
3	1513817	2600	98
3	1539635	2650	98
3	1565841	2700	97
3	1591955	2750	97
3	1618059	2800	97
3	1644179	2850	98
3	1670521	2900	96
3	1696776	2950	96
3	1723016	3000	96
3	1749109	3050	95
3	1775215	3100	95
3	1801262	3150	95
3	1827393	3200	95
3	1853871	3250	96
3	1880265	3300	96
3	1907021	3350	95
3	1933806	3400	95
3	1960546	3450	94
3	1986864	3500	94
3	2013206	3550	94
3	2039869	3600	94
3	2066580	3650	94
3	2093526	3700	95
3	2120384	3750	95
3	2147480	3800	96
3	2174749	3850	97
3	2202341	3900	98
3	2229883	3950	98
3	2257459	4000	98
3	2285154	4050	100
3	2313160	4100	100
3	2340997	4150	100
3	2369374	4200	97
3	2398211	4250	99
3	2426758	4300	98
3	2455380	4350	97
3	2483961	4400	97
3	2511847	4450	95
3	2539866	4500	95
3	2567981	4550	96
3	2595996	4600	97
3	2624610	4650	98
3	2653275	4700	97
3	2681953	4750	96
3	2710694	4800	94
3	2738528	4850	93
3	2766264	4900	93
3	2794144	4950	94
3	2821950	5000	93
3	2849492	5050	93
3	2877233	5100	94
3	2905274	5150	93
3	2933069	5200	93
3	2961062	5250	94
3	2989178	5300	93
3	3017391	5350	95
3	3045399	5400	93
3	3073739	5450	94
3	3102315	5500	95
3	3131065	5550	95
3	3159871	5600	95
3	3188528	5650	95
3	3217236	5700	96
3	3245944	5750	96
3	3274098	5800	94
3	3302484	5850	95
3	3331075	5900	94
3	3359557	5950	95
3	3388248	6000	94
3	3416809	6050	94
3	3445491	6100	94
3	3474229	6150	95
3	3503220	6200	94
3	3532054	6250	94
3	3560895	6300	93
3	3589822	6350	94
3	3619406	6400	96
3	3649094	6450	96
3	3678875	6500	96
3	3708459	6550	97
3	3738177	6600	97
3	3767675	6650	95
3	3797238	6700	94
3	3826885	6750	96
3	3856578	6800	94
3	3886162	6850	94
3	3915755	6900	94
3	3944975	6950	91
3	3974490	7000	90
3	4003776	7050	90
3	4033014	7100	90
3	4062276	7150	91
3	4091354	7200	89
3	4120381	7250	89
4	129496	252.340131552	252.340131552
4	135861	262.294315032	9.95418348
4	152635	289.171277136	26.876962104
4	235798	421.89176657	132.720489434
4	242594	432.70296378	10.81119721
4	301307	525.907154218	93.204190438
4	426825	723.432101989	197.524947771
4	437228	739.547100444	16.114998455
4	484509	813.750516331	74.203415887
4	593869	983.700897653	169.950381322
4	665853	1098.708976032	115.008078379
4	731297	1204.554411418	105.845435386
4	741181	1220.396201565	15.841790147
4	751517	1236.596721791	16.200520226
4	767826	1263.123426909	26.526705118
4	776960	1277.992371914	14.868945005
4	787075	1294.38361913	16.391247216
4	849274	1408.51362685	114.13000772
4	869625	1445.716549384	37.202922534
4	881242	1467.24523102	21.528681636
4	896191	1495.23889125	27.99366023
4	976964	1644.709259539	149.470368289
4	1101579	1870.530541176	225.821281637
4	1181513	2013.523155293	142.992614117
4	1257649	2149.183587883	135.66043259
4	1438332	2468.508995681	319.325407798
4	1503027	2580.408567577	111.899571896
4	1525814	2623.111156378	42.702588801
4	1553430	2676.324181042	53.213024664
4	1652025	2864.765052748	188.440871706
4	1661466	2882.498700929	17.733648181
4	1733090	3019.353530145	136.854829216
4	1760958	3072.811532697	53.458002552
4	1780549	3110.189318942	37.377786245
4	1887328	3313.278785485	203.089466543
4	1890234	3318.724648342	5.445862857
4	1951657	3433.174920393	114.450272051
4	2010996	3545.762355674	112.587435281
4	2053038	3624.815125465	79.052769791
4	2333131	4135.941070653	511.125945188
4	2335893	4140.780256408	4.839185755
4	2352852	4171.49018066	30.709924252
4	2356851	4178.396789272	6.906608612
4	2401267	4255.388353735	76.991564463
4	2440858	4324.431841053	69.043487318
4	2476346	4386.66203551	62.230194457
4	2491852	4414.381760693	27.719725183
4	2643560	4683.00221535	268.620454657
4	2673221	4734.809610804	51.807395454
4	2691415	4766.358948014	31.54933721
4	2697884	4777.643807974	11.28485996
4	2698420	4778.607860599	0.964052625
4	2714686	4807.039402396	28.431541797
4	2811632	4981.518942916	174.47954052
4	2820229	4996.800456643	15.281513727
4	2876072	5097.946262939	101.145806296
4	2907833	5154.58967696	56.643414021
4	2953346	5236.164901301	81.575224341
4	3023941	5361.788420069	125.623518768
4	3036830	5384.871666423	23.083246354
4	3238657	5737.3642148	352.492548377
4	3264302	5782.403273238	45.039058438
4	3300762	5846.984899948	64.58162671
4	3362882	5955.590217071	108.605317123
4	3494360	6184.874215311	229.28399824
4	3535238	6255.361969644	70.487754333
4	3743604	6609.123188325	353.761218681
4	3744801	6611.168904469	2.045716144
4	3775751	6663.592925566	52.424021097
4	3827018	6750.261964208	86.669038642
4	3846542	6783.254905994	32.992941786
4	3847238	6784.402796644	1.14789065
4	3907344	6885.793425732	101.390629088
4	3913705	6896.693225497	10.899799765
4	3923062	6912.465218199	15.771992702
4	3946789	6953.028638751	40.563420552
4	3987465	7022.251368724	69.222729973
4	4061124	7148.058427086	125.807058362
4	4061601	7148.856294534	0.797867448
