version 2
run HStreamingChurn-0-20140406-11:07:05-9432
attr configname HStreamingChurn
attr datetime 20140406-11:07:05
attr experiment HStreamingChurn
attr inifile htopology.ini
attr iterationvars ""
attr iterationvars2 $repetition=0
attr measurement ""
attr network oversim.underlay.simpleunderlay.SimpleUnderlayNetwork
attr processid 9432
attr repetition 0
attr replication #0
attr resultdir results
attr runnumber 0
attr seedset 0

vector 1  SimpleUnderlayNetwork.globalObserver.globalStatistics  "ParetoChurn: Session Time"  ETV
vector 2  SimpleUnderlayNetwork.globalObserver.globalStatistics  "ParetoChurn: Time between creates"  ETV
vector 3  SimpleUnderlayNetwork.globalObserver.globalStatistics  "GlobalNodeList: Number of nodes"  ETV
vector 4  SimpleUnderlayNetwork.globalObserver.globalStatistics  "ParetoChurn: Time between deletes"  ETV
1	68781	144.074201019	4049.3225882539
1	388464	570.666384515	13409.189214422
1	414444	604.889275726	61.907854005359
1	428246	622.796629741	17250.020190509
1	511759	730.528348663	6831.3114360377
1	553533	783.913080109	494.21034680042
1	708445	982.671835603	1980.5944930496
1	790992	1107.109957579	3084.986667354
1	845383	1190.452510686	3602.1912972883
1	944343	1341.296647645	5586.1685705549
1	1156163	1658.514508405	370.00864688889
1	1177310	1689.69206605	7188.5093395891
1	1188194	1705.546639324	3006.9387659344
1	1195008	1715.3007525	19914.84856033
1	1203690	1727.587321988	1467.4220352763
1	1412293	2021.747200361	5602.3989782111
1	1629289	2324.735513229	47938.182186064
1	1650869	2354.678899937	4570.2778011394
1	1677452	2391.056628117	25445.367341895
1	1724553	2454.965093135	866.02452469332
1	1734554	2468.508995681	6.0637786800093
1	1817425	2579.843779034	2201.51516898
1	1860944	2636.645023918	2375.155432725
1	2018279	2841.326132797	38.438919951126
1	2187583	3059.092407282	337.27808058809
1	2297699	3200.545541966	5776.2941800776
1	2346948	3263.640962467	3591.1178035702
1	2350356	3268.06380713	117.86746918802
1	2457084	3403.555762929	2189.1428209783
1	2490607	3445.990541653	6596.4470530736
1	2630428	3621.228574361	1513.8763044025
1	2642374	3636.158001463	4574.1268946527
1	2765203	3788.496081173	39098.211363025
1	3028101	4112.049115006	947.06116086949
1	3131915	4238.706231992	6248.3113714597
1	3176194	4291.764664895	751.92357937161
1	3298100	4438.075261881	1757.1549563447
1	3321828	4467.204030854	20029.741428232
1	3361676	4515.576369682	16098.598276862
1	3453180	4626.046898506	846.50833419929
1	3556835	4750.128587266	17638.461992237
1	3797170	5034.418660025	386.92222174103
1	3803603	5042.057519814	1723.2044443941
1	3847158	5092.623686471	60.906270828041
1	4016778	5287.49439676	143.09945067981
1	4066695	5343.993812677	8320.3518580898
1	4069342	5346.972131847	559.14537759584
1	4275186	5575.605628859	1346.1981623774
1	4299969	5602.847979177	1246.1928562754
1	4383348	5693.709061281	71602.561636449
1	4557477	5890.991692508	216.73294301252
1	4662778	6011.149500996	863.52623870018
1	4676887	6026.902275174	2325.1259228512
1	4854618	6227.917334697	224.9664326212
1	4917313	6300.128047075	3290.0568871846
1	4975022	6367.974089957	26785.410055134
1	5019074	6419.684593238	492.14352629987
1	5124955	6544.206681407	47306.653128966
1	5168878	6595.389881709	1763.0536531331
1	5292745	6738.510004809	83.508112617295
1	5457237	6931.612737699	1202.7622925533
1	5506613	6991.014105402	161.48188365336
1	5520591	7007.582324996	111655.96590692
1	5547782	7039.483539919	529.48162243035
1	5555737	7048.762181552	1603.5940872935
1	5565500	7060.219267607	7287.1346423505
1	5584863	7082.499170238	41566.793132376
1	5623060	7126.320179271	9542.2902520993
1	5673945	7184.726164194	437.45333311825
1	5771826	7295.859182166	90.230371054356
2	68781	144.074201019	45.269925976
2	388464	570.666384515	426.592183496
2	414444	604.889275726	34.222891211
2	428246	622.796629741	17.907354015
2	511759	730.528348663	107.731718922
2	553533	783.913080109	53.384731446
2	708445	982.671835603	198.758755494
2	790992	1107.109957579	124.438121976
2	845383	1190.452510686	83.342553107
2	944343	1341.296647645	150.844136959
2	1156163	1658.514508405	317.21786076
2	1177310	1689.69206605	31.177557645
2	1188194	1705.546639324	15.854573274
2	1195008	1715.3007525	9.754113176
2	1203690	1727.587321988	12.286569488
2	1412293	2021.747200361	294.159878373
2	1629289	2324.735513229	302.988312868
2	1650869	2354.678899937	29.943386708
2	1677452	2391.056628117	36.37772818
2	1724553	2454.965093135	63.908465018
2	1734554	2468.508995681	13.543902546
2	1817425	2579.843779034	111.334783353
2	1860944	2636.645023918	56.801244884
2	2018279	2841.326132797	204.681108879
2	2187583	3059.092407282	217.766274485
2	2297699	3200.545541966	141.453134684
2	2346948	3263.640962467	63.095420501
2	2350356	3268.06380713	4.422844663
2	2457084	3403.555762929	135.491955799
2	2490607	3445.990541653	42.434778724
2	2630428	3621.228574361	175.238032708
2	2642374	3636.158001463	14.929427102
2	2765203	3788.496081173	152.33807971
2	3028101	4112.049115006	323.553033833
2	3131915	4238.706231992	126.657116986
2	3176194	4291.764664895	53.058432903
2	3298100	4438.075261881	146.310596986
2	3321828	4467.204030854	29.128768973
2	3361676	4515.576369682	48.372338828
2	3453180	4626.046898506	110.470528824
2	3556835	4750.128587266	124.08168876
2	3797170	5034.418660025	284.290072759
2	3803603	5042.057519814	7.638859789
2	3847158	5092.623686471	50.566166657
2	4016778	5287.49439676	194.870710289
2	4066695	5343.993812677	56.499415917
2	4069342	5346.972131847	2.97831917
2	4275186	5575.605628859	228.633497012
2	4299969	5602.847979177	27.242350318
2	4383348	5693.709061281	90.861082104
2	4557477	5890.991692508	197.282631227
2	4662778	6011.149500996	120.157808488
2	4676887	6026.902275174	15.752774178
2	4854618	6227.917334697	201.015059523
2	4917313	6300.128047075	72.210712378
2	4975022	6367.974089957	67.846042882
2	5019074	6419.684593238	51.710503281
2	5124955	6544.206681407	124.522088169
2	5168878	6595.389881709	51.183200302
2	5292745	6738.510004809	143.1201231
2	5457237	6931.612737699	193.10273289
2	5506613	6991.014105402	59.401367703
2	5520591	7007.582324996	16.568219594
2	5547782	7039.483539919	31.901214923
2	5555737	7048.762181552	9.278641633
2	5565500	7060.219267607	11.457086055
2	5584863	7082.499170238	22.279902631
2	5623060	7126.320179271	43.821009033
2	5673945	7184.726164194	58.405984923
2	5771826	7295.859182166	111.133017972
3	73189	150	102
3	109333	200	102
3	145555	250	102
3	183134	300	100
3	221160	350	99
3	259087	400	99
3	296866	450	97
3	334720	500	97
3	372663	550	96
3	410747	600	97
3	449443	650	99
3	488130	700	98
3	526983	750	98
3	566038	800	98
3	605000	850	98
3	644000	900	98
3	683064	950	98
3	722081	1000	98
3	754216	1050	98
3	786384	1100	98
3	818910	1150	98
3	851631	1200	99
3	884486	1250	97
3	917128	1300	94
3	950170	1350	94
3	983233	1400	94
3	1016344	1450	93
3	1049123	1500	92
3	1082446	1550	91
3	1116402	1600	91
3	1150280	1650	91
3	1184319	1700	92
3	1219476	1750	95
3	1254996	1800	95
3	1290482	1850	95
3	1325811	1900	94
3	1361277	1950	94
3	1396741	2000	94
3	1432475	2050	94
3	1468388	2100	94
3	1504221	2150	94
3	1540086	2200	93
3	1575780	2250	93
3	1611506	2300	93
3	1647487	2350	94
3	1684035	2400	96
3	1720883	2450	96
3	1757825	2500	97
3	1795068	2550	97
3	1832358	2600	97
3	1871199	2650	97
3	1909477	2700	96
3	1947957	2750	96
3	1986388	2800	96
3	2024989	2850	97
3	2063793	2900	96
3	2102699	2950	96
3	2141546	3000	95
3	2180422	3050	95
3	2219403	3100	96
3	2258330	3150	96
3	2297240	3200	95
3	2336280	3250	96
3	2375513	3300	98
3	2414797	3350	95
3	2454236	3400	93
3	2493801	3450	94
3	2533660	3500	94
3	2573602	3550	94
3	2613550	3600	93
3	2653555	3650	95
3	2693829	3700	95
3	2734112	3750	95
3	2774477	3800	96
3	2815149	3850	96
3	2855777	3900	96
3	2896419	3950	96
3	2937032	4000	96
3	2977648	4050	96
3	3018330	4100	96
3	3059267	4150	97
3	3100014	4200	93
3	3141352	4250	94
3	3183097	4300	95
3	3224756	4350	95
3	3266552	4400	95
3	3307812	4450	94
3	3348787	4500	95
3	3390136	4550	96
3	3431535	4600	96
3	3473144	4650	97
3	3515014	4700	97
3	3556738	4750	96
3	3598803	4800	94
3	3641060	4850	94
3	3683339	4900	94
3	3725604	4950	94
3	3767975	5000	94
3	3810459	5050	94
3	3853578	5100	94
3	3896961	5150	92
3	3940447	5200	91
3	3983983	5250	91
3	4027790	5300	92
3	4072128	5350	94
3	4117024	5400	94
3	4161799	5450	92
3	4206800	5500	91
3	4251984	5550	91
3	4297340	5600	91
3	4343213	5650	92
3	4389077	5700	93
3	4434954	5750	93
3	4478315	5800	91
3	4521856	5850	91
3	4565395	5900	92
3	4609185	5950	91
3	4653032	6000	91
3	4697267	6050	93
3	4741439	6100	93
3	4785700	6150	92
3	4829952	6200	91
3	4874242	6250	92
3	4917217	6300	91
3	4959699	6350	92
3	5002196	6400	93
3	5044842	6450	94
3	5087381	6500	93
3	5129933	6550	94
3	5172834	6600	95
3	5216001	6650	95
3	5259315	6700	95
3	5302744	6750	96
3	5346294	6800	94
3	5388569	6850	92
3	5430794	6900	90
3	5472356	6950	85
3	5514161	7000	85
3	5556769	7050	88
3	5600078	7100	90
3	5643683	7150	91
3	5687378	7200	91
3	5731350	7250	91
4	147199	252.340131552	252.340131552
4	154489	262.294315032	9.95418348
4	174222	289.171277136	26.876962104
4	275563	421.89176657	132.720489434
4	283757	432.70296378	10.81119721
4	354533	525.907154218	93.204190438
4	450822	651.797129731	125.889975513
4	506265	723.432101989	71.634972258
4	518817	739.547100444	16.114998455
4	709254	983.700897653	244.153797209
4	785587	1098.708976032	115.008078379
4	854563	1204.554411418	105.845435386
4	864953	1220.396201565	15.841790147
4	875700	1236.596721791	16.200520226
4	892977	1263.123426909	26.526705118
4	902813	1277.992371914	14.868945005
4	913612	1294.38361913	16.391247216
4	988944	1408.51362685	114.13000772
4	1013558	1445.716549384	37.202922534
4	1046065	1495.23889125	49.522341866
4	1146706	1644.709259539	149.470368289
4	1305020	1870.530541176	225.821281637
4	1406396	2013.523155293	142.992614117
4	1503604	2149.183587883	135.66043259
4	1734562	2468.508995681	319.325407798
4	1817899	2580.408567577	111.899571896
4	1850366	2623.111156378	42.702588801
4	1891423	2676.324181042	53.213024664
4	2036471	2864.765052748	188.440871706
4	2101328	2948.266328652	83.501275904
4	2281785	3180.009357264	231.743028612
4	2380250	3305.989617828	125.980260564
4	2385974	3313.278785485	7.289167657
4	2390251	3318.724648342	5.445862857
4	2431385	3370.931276318	52.206627976
4	2439605	3381.37048787	10.439211552
4	2480484	3433.174920393	51.804432523
4	2570281	3545.762355674	112.587435281
4	3051760	4140.780256408	595.017900734
4	3076828	4171.49018066	30.709924252
4	3081390	4177.096624933	5.606444273
4	3082532	4178.396789272	1.300164339
4	3255491	4386.66203551	208.265246238
4	3278507	4414.381760693	27.719725183
4	3512978	4697.485405258	283.103644565
4	3570602	4766.358948014	68.873542756
4	3580134	4777.643807974	11.28485996
4	3580963	4778.607860599	0.964052625
4	3765348	4996.800456643	218.192596044
4	3792255	5028.688244266	31.887787623
4	3805371	5044.110275875	15.422031609
4	3851803	5097.946262939	53.835987064
4	3871010	5120.104878763	22.158615824
4	3887048	5138.529957299	18.425078536
4	4122778	5406.340881766	267.810924467
4	4131147	5415.593847439	9.252965673
4	4168698	5457.555232705	41.961385266
4	4277071	5577.698583907	120.143351202
4	4423399	5737.3642148	159.665630893
4	4463321	5782.403273238	45.039058438
4	4557573	5891.117509442	108.714236204
4	4735126	6092.72463552	201.607126078
4	4812447	6180.230218225	87.505582705
4	4879024	6255.361969644	75.131751419
4	5034582	6437.883767318	182.521797674
4	5302978	6750.261964208	312.37819689
4	5332777	6784.402796644	34.140832436
4	5352256	6807.018117426	22.615320782
4	5375032	6834.040835452	27.022718026
4	5379906	6839.758766037	5.717930585
4	5396770	6859.675739696	19.916973659
4	5418734	6885.793425732	26.117686036
4	5428051	6896.693225497	10.899799765
4	5428153	6896.828119537	0.13489404
4	5436667	6906.803791236	9.975671699
4	5439299	6909.956701076	3.15290984
4	5441537	6912.465218199	2.508517123
4	5474908	6953.028638751	40.563420552
4	5632867	7137.495989055	184.467350304
