version 2
run HStreamingChurn-0-20140401-18:28:46-6264
attr configname HStreamingChurn
attr datetime 20140401-18:28:46
attr experiment HStreamingChurn
attr inifile htopology.ini
attr iterationvars ""
attr iterationvars2 $repetition=0
attr measurement ""
attr network oversim.underlay.simpleunderlay.SimpleUnderlayNetwork
attr processid 6264
attr repetition 0
attr replication #0
attr resultdir results
attr runnumber 0
attr seedset 0

vector 1  SimpleUnderlayNetwork.globalObserver.globalStatistics  "ParetoChurn: Session Time"  ETV
vector 2  SimpleUnderlayNetwork.globalObserver.globalStatistics  "ParetoChurn: Time between creates"  ETV
vector 3  SimpleUnderlayNetwork.globalObserver.globalStatistics  "GlobalNodeList: Number of nodes"  ETV
vector 4  SimpleUnderlayNetwork.globalObserver.globalStatistics  "ParetoChurn: Time between deletes"  ETV
1	60381	144.074201019	4049.3225882539
1	314342	570.666384515	13409.189214422
1	334122	604.889275726	61.907854005359
1	344672	622.796629741	17250.020190509
1	408034	730.528348663	6831.3114360377
1	438903	783.913080109	494.21034680042
1	553223	982.671835603	1980.5944930496
1	621780	1099.54006824	602.64359752637
1	675348	1190.452510686	3602.1912972883
1	761280	1341.296647645	5586.1685705549
1	778241	1372.316906108	2113.7947921952
1	865634	1532.924064235	64.997414701974
1	934053	1658.514508405	370.00864688889
1	950949	1689.69206605	7188.5093395891
1	1023330	1822.124649902	487.34280904978
1	1133078	2021.747200361	5602.3989782111
1	1136780	2028.37796952	19154.777488927
1	1205676	2152.174518959	1641.8679697544
1	1286331	2295.801282117	3180.6482901222
1	1299962	2319.819045788	21461.608527119
1	1340701	2391.056628117	25445.367341895
1	1379665	2458.534408286	7817.1830232286
1	1385533	2468.508995681	6.0637786800093
1	1387020	2471.033551614	9013.324592076
1	1451391	2579.843779034	2201.51516898
1	1484868	2636.645023918	2375.155432725
1	1606027	2841.326132797	38.438919951126
1	1818461	3200.545541966	5776.2941800776
1	1967971	3453.339796351	700.12732566991
1	2003787	3514.262203705	16051.875729817
1	2059608	3608.439553279	33590.25006474
1	2113357	3698.119384419	2165.7847497163
1	2168167	3788.496081173	39098.211363025
1	2195901	3834.096512001	911.42669471055
1	2225570	3882.34324001	345.26011113422
1	2270081	3954.118222555	217.63506652069
1	2360110	4097.677480536	15217.119891943
1	2581497	4458.84810196	5048.2923970261
1	2624549	4529.509178037	10994.881644449
1	2650891	4572.265241374	173.91065519142
1	2683133	4624.053350219	185.2636045321
1	2762252	4750.128587266	17638.461992237
1	2806681	4821.936198574	891.49560188452
1	2905901	4983.757679914	818.81754955097
1	2941910	5042.057519814	1723.2044443941
1	2982764	5107.76505829	314.10618796535
1	3055415	5224.254287945	1169.2298367765
1	3334406	5670.164465213	411.4909938617
1	3520516	5962.010282084	1836.7932935391
1	3739892	6300.128047075	3290.0568871846
1	3831027	6439.672703348	1775.0344906868
1	3896668	6539.651488768	338.05780894351
1	3899757	6544.206681407	47306.653128966
1	3929308	6588.822578291	746.02158433789
1	4002004	6697.492715488	13770.665221911
1	4182625	6960.986544398	462.5556647769
1	4194438	6978.228735374	1889.1633563058
1	4242624	7048.762181552	1603.5940872935
1	4296218	7126.320179271	9542.2902520993
1	4363618	7223.030632665	836.25679197519
2	60381	144.074201019	45.269925976
2	314342	570.666384515	426.592183496
2	334122	604.889275726	34.222891211
2	344672	622.796629741	17.907354015
2	408034	730.528348663	107.731718922
2	438903	783.913080109	53.384731446
2	553223	982.671835603	198.758755494
2	621780	1099.54006824	116.868232637
2	675348	1190.452510686	90.912442446
2	761280	1341.296647645	150.844136959
2	778241	1372.316906108	31.020258463
2	865634	1532.924064235	160.607158127
2	934053	1658.514508405	125.59044417
2	950949	1689.69206605	31.177557645
2	1023330	1822.124649902	132.432583852
2	1133078	2021.747200361	199.622550459
2	1136780	2028.37796952	6.630769159
2	1205676	2152.174518959	123.796549439
2	1286331	2295.801282117	143.626763158
2	1299962	2319.819045788	24.017763671
2	1340701	2391.056628117	71.237582329
2	1379665	2458.534408286	67.477780169
2	1385533	2468.508995681	9.974587395
2	1387020	2471.033551614	2.524555933
2	1451391	2579.843779034	108.81022742
2	1484868	2636.645023918	56.801244884
2	1606027	2841.326132797	204.681108879
2	1818461	3200.545541966	359.219409169
2	1967971	3453.339796351	252.794254385
2	2003787	3514.262203705	60.922407354
2	2059608	3608.439553279	94.177349574
2	2113357	3698.119384419	89.67983114
2	2168167	3788.496081173	90.376696754
2	2195901	3834.096512001	45.600430828
2	2225570	3882.34324001	48.246728009
2	2270081	3954.118222555	71.774982545
2	2360110	4097.677480536	143.559257981
2	2581497	4458.84810196	361.170621424
2	2624549	4529.509178037	70.661076077
2	2650891	4572.265241374	42.756063337
2	2683133	4624.053350219	51.788108845
2	2762252	4750.128587266	126.075237047
2	2806681	4821.936198574	71.807611308
2	2905901	4983.757679914	161.82148134
2	2941910	5042.057519814	58.2998399
2	2982764	5107.76505829	65.707538476
2	3055415	5224.254287945	116.489229655
2	3334406	5670.164465213	445.910177268
2	3520516	5962.010282084	291.845816871
2	3739892	6300.128047075	338.117764991
2	3831027	6439.672703348	139.544656273
2	3896668	6539.651488768	99.97878542
2	3899757	6544.206681407	4.555192639
2	3929308	6588.822578291	44.615896884
2	4002004	6697.492715488	108.670137197
2	4182625	6960.986544398	263.49382891
2	4194438	6978.228735374	17.242190976
2	4242624	7048.762181552	70.533446178
2	4296218	7126.320179271	77.557997719
2	4363618	7223.030632665	96.710453394
3	64194	150	102
3	95292	200	102
3	126464	250	102
3	156676	300	100
3	186081	350	99
3	215576	400	99
3	244891	450	97
3	273615	500	97
3	302411	550	96
3	331306	600	97
3	360823	650	99
3	390231	700	98
3	419606	750	98
3	448149	800	98
3	476936	850	98
3	505704	900	98
3	534541	950	98
3	563365	1000	98
3	592737	1050	98
3	622057	1100	99
3	651463	1150	98
3	680969	1200	99
3	710388	1250	97
3	739081	1300	94
3	766070	1350	94
3	793297	1400	95
3	820675	1450	94
3	847807	1500	93
3	875026	1550	93
3	902335	1600	92
3	929358	1650	92
3	956622	1700	93
3	983970	1750	92
3	1011352	1800	92
3	1038824	1850	93
3	1066357	1900	92
3	1093694	1950	92
3	1121081	2000	92
3	1148780	2050	93
3	1176659	2100	93
3	1204482	2150	93
3	1232484	2200	93
3	1260566	2250	93
3	1288746	2300	94
3	1317251	2350	94
3	1345889	2400	95
3	1374745	2450	95
3	1404142	2500	97
3	1433702	2550	97
3	1463373	2600	97
3	1492830	2650	97
3	1522393	2700	96
3	1551961	2750	96
3	1581521	2800	96
3	1611192	2850	97
3	1640981	2900	96
3	1670721	2950	96
3	1700240	3000	95
3	1729670	3050	95
3	1759124	3100	95
3	1788607	3150	95
3	1818125	3200	95
3	1847945	3250	96
3	1877670	3300	96
3	1907312	3350	94
3	1936673	3400	94
3	1966046	3450	93
3	1995459	3500	93
3	2024973	3550	94
3	2054552	3600	93
3	2084462	3650	94
3	2114533	3700	95
3	2144786	3750	95
3	2175199	3800	95
3	2205743	3850	96
3	2236538	3900	97
3	2267542	3950	97
3	2298870	4000	98
3	2330223	4050	98
3	2361605	4100	99
3	2393242	4150	99
3	2424233	4200	94
3	2454749	4250	93
3	2485097	4300	93
3	2515539	4350	93
3	2545893	4400	93
3	2576128	4450	91
3	2606571	4500	92
3	2637226	4550	93
3	2668197	4600	94
3	2699457	4650	95
3	2730904	4700	95
3	2762184	4750	93
3	2793332	4800	91
3	2823865	4850	91
3	2854572	4900	91
3	2885217	4950	91
3	2916039	5000	92
3	2946837	5050	92
3	2977942	5100	92
3	3009092	5150	92
3	3040311	5200	92
3	3071664	5250	93
3	3103156	5300	93
3	3134650	5350	93
3	3166078	5400	93
3	3197458	5450	92
3	3228671	5500	91
3	3259749	5550	91
3	3290773	5600	91
3	3321841	5650	91
3	3352871	5700	92
3	3383852	5750	91
3	3416135	5800	89
3	3448506	5850	88
3	3480630	5900	87
3	3512737	5950	87
3	3545134	6000	88
3	3577595	6050	88
3	3610043	6100	87
3	3642457	6150	87
3	3674882	6200	87
3	3707277	6250	87
3	3739796	6300	86
3	3772521	6350	87
3	3805190	6400	86
3	3837815	6450	87
3	3870650	6500	87
3	3903567	6550	89
3	3936793	6600	90
3	3970314	6650	90
3	4003732	6700	91
3	4037479	6750	91
3	4071131	6800	89
3	4105627	6850	89
3	4140454	6900	88
3	4174988	6950	85
3	4209290	7000	86
3	4243512	7050	87
3	4278056	7100	87
3	4312706	7150	88
3	4347587	7200	88
3	4382536	7250	89
4	127880	252.340131552	252.340131552
4	134161	262.294315032	9.95418348
4	150329	289.171277136	26.876962104
4	228337	421.89176657	132.720489434
4	234695	432.70296378	10.81119721
4	288705	525.907154218	93.204190438
4	361895	651.797129731	125.889975513
4	403879	723.432101989	71.634972258
4	413374	739.547100444	16.114998455
4	553826	983.700897653	244.153797209
4	621281	1098.708976032	115.008078379
4	683621	1204.554411418	105.845435386
4	692994	1220.396201565	15.841790147
4	702515	1236.596721791	16.200520226
4	717938	1263.123426909	26.526705118
4	726505	1277.992371914	14.868945005
4	736061	1294.38361913	16.391247216
4	798036	1408.51362685	114.13000772
4	818354	1445.716549384	37.202922534
4	845261	1495.23889125	49.522341866
4	892877	1582.921478936	87.682587686
4	926475	1644.709259539	61.787780603
4	949626	1687.183665766	42.474406227
4	1050136	1870.530541176	183.34687541
4	1128538	2013.523155293	142.992614117
4	1203993	2149.183587883	135.66043259
4	1285602	2294.467458951	145.283871068
4	1385541	2468.508995681	174.04153673
4	1451827	2580.408567577	111.899571896
4	1476920	2623.111156378	42.702588801
4	1508316	2676.324181042	53.213024664
4	1620009	2864.765052748	188.440871706
4	1669706	2948.266328652	83.501275904
4	1885658	3313.278785485	365.012456833
4	1888873	3318.724648342	5.445862857
4	1956199	3433.174920393	114.450272051
4	1978478	3471.111698303	37.93677791
4	2022479	3545.762355674	74.650657371
4	2162412	3779.042488713	233.280133039
4	2385923	4138.46712202	359.424633307
4	2387373	4140.780256408	2.313134388
4	2397474	4156.753289075	15.973032667
4	2406659	4171.49018066	14.736891585
4	2410909	4178.396789272	6.906608612
4	2431949	4212.603351144	34.206561872
4	2537685	4386.66203551	174.058684366
4	2554628	4414.381760693	27.719725183
4	2749983	4730.523206711	316.141446018
4	2750404	4731.175896565	0.652689854
4	2772521	4766.358948014	35.183051449
4	2779560	4777.643807974	11.28485996
4	2780173	4778.607860599	0.964052625
4	2789907	4794.316954751	15.709094152
4	2913991	4996.800456643	202.483501892
4	2976662	5097.946262939	101.145806296
4	3170411	5406.871246255	308.924983316
4	3204591	5461.449572239	54.578325984
4	3351905	5698.431800458	236.982228219
4	3376053	5737.3642148	38.932414342
4	3404619	5782.403273238	45.039058438
4	3408033	5787.575229464	5.171956226
4	3447803	5848.904134135	61.328904671
4	3588345	6066.655459074	217.751324939
4	3710832	6255.361969644	188.70651057
4	3791203	6378.484124721	123.122155077
4	4037675	6750.261964208	371.777839487
4	4060678	6784.402796644	34.140832436
4	4114452	6862.709297711	78.306501067
4	4130496	6885.793425732	23.084128021
4	4138152	6896.693225497	10.899799765
4	4149158	6912.465218199	15.771992702
4	4177180	6953.028638751	40.563420552
