version 2
run HStreamingChurn-0-20140414-13:20:56-240
attr configname HStreamingChurn
attr datetime 20140414-13:20:56
attr experiment HStreamingChurn
attr inifile htopology.ini
attr iterationvars ""
attr iterationvars2 $repetition=0
attr measurement ""
attr network oversim.underlay.simpleunderlay.SimpleUnderlayNetwork
attr processid 240
attr repetition 0
attr replication #0
attr resultdir results
attr runnumber 0
attr seedset 0

vector 1  SimpleUnderlayNetwork.globalObserver.globalStatistics  "ParetoChurn: Session Time"  ETV
vector 2  SimpleUnderlayNetwork.globalObserver.globalStatistics  "ParetoChurn: Time between creates"  ETV
vector 3  SimpleUnderlayNetwork.globalObserver.globalStatistics  "GlobalNodeList: Number of nodes"  ETV
vector 4  SimpleUnderlayNetwork.globalObserver.globalStatistics  "ParetoChurn: Time between deletes"  ETV
1	73179	144.074201019	4049.3225882539
1	406455	570.666384515	13409.189214422
1	447210	622.796629741	17250.020190509
1	532970	730.528348663	6831.3114360377
1	576207	783.913080109	494.21034680042
1	817452	1077.822827153	11963.156355196
1	838223	1103.429304014	62.682933091904
1	911498	1190.452510686	3602.1912972883
1	972360	1261.943038048	6066.8095084489
1	1041503	1341.296647645	5586.1685705549
1	1055477	1356.787953369	159.00314884764
1	1298516	1628.540283207	6234.6199458902
1	1324854	1658.073304706	27951.691534018
1	1325229	1658.514508405	370.00864688889
1	1353945	1689.69206605	7188.5093395891
1	1508763	1857.601183063	26.962633981865
1	1616265	1973.321304026	2049.0596639728
1	1661338	2021.747200361	5602.3989782111
1	1673869	2034.643100868	505.51741686079
1	1697528	2059.629836672	541.51968600858
1	1818634	2185.722060158	1207.4890002879
1	2015750	2391.056628117	25445.367341895
1	2091199	2468.508995681	6.0637786800093
1	2136825	2515.63142634	4470.3144089988
1	2153716	2532.489343178	7.736781517001
1	2200372	2579.843779034	2201.51516898
1	2256443	2636.645023918	2375.155432725
1	2282884	2663.206002323	1608.136977046
1	2461152	2841.326132797	38.438919951126
1	2675368	3054.313135318	1650.2873379195
1	2824611	3200.545541966	5776.2941800776
1	2925876	3300.026427122	29220.479447331
1	3069965	3442.761362138	9406.0928114456
1	3119490	3492.684064413	7288.4144016945
1	3414461	3788.496081173	39098.211363025
1	3681464	4054.513482348	4078.4882697858
1	3801818	4173.615841954	2426.1011230023
1	3802820	4174.565056061	1036.329115733
1	3812537	4184.306415533	3064.058007228
1	3915916	4286.637007139	1988.8980837894
1	4042923	4411.409103646	8707.2740693347
1	4056417	4424.54110943	5664.3134408319
1	4111120	4477.417794517	1190.0480628815
1	4394205	4750.128587266	17638.461992237
1	4502712	4853.347868839	8779.2433931273
1	4701894	5042.057519814	1723.2044443941
1	5112023	5427.302419509	582.54982127739
1	5473287	5764.087696427	604.49928292024
1	5536334	5824.452435278	10982.392374886
1	5672002	5952.885780903	154.30691213764
1	5897568	6165.014829643	5150.8720286875
1	6042765	6300.128047075	3290.0568871846
1	6119014	6370.296157477	14671.60217639
1	6134281	6384.590141683	297.32223432618
1	6301640	6536.853450015	9430.0958308721
1	6309916	6544.206681407	47306.653128966
1	6412816	6637.41748508	1463.1003577362
1	6416014	6640.194782497	1695.4576543673
1	6499854	6715.097069548	144268.24497986
1	6780764	6967.082576484	2300.3747129868
1	6855286	7038.626333497	7067.7156197575
1	6865647	7048.762181552	1603.5940872935
1	6908270	7089.402651173	130.83545272627
1	6947239	7126.320179271	9542.2902520993
2	73179	144.074201019	45.269925976
2	406455	570.666384515	426.592183496
2	447210	622.796629741	52.130245226
2	532970	730.528348663	107.731718922
2	576207	783.913080109	53.384731446
2	817452	1077.822827153	293.909747044
2	838223	1103.429304014	25.606476861
2	911498	1190.452510686	87.023206672
2	972360	1261.943038048	71.490527362
2	1041503	1341.296647645	79.353609597
2	1055477	1356.787953369	15.491305724
2	1298516	1628.540283207	271.752329838
2	1324854	1658.073304706	29.533021499
2	1325229	1658.514508405	0.441203699
2	1353945	1689.69206605	31.177557645
2	1508763	1857.601183063	167.909117013
2	1616265	1973.321304026	115.720120963
2	1661338	2021.747200361	48.425896335
2	1673869	2034.643100868	12.895900507
2	1697528	2059.629836672	24.986735804
2	1818634	2185.722060158	126.092223486
2	2015750	2391.056628117	205.334567959
2	2091199	2468.508995681	77.452367564
2	2136825	2515.63142634	47.122430659
2	2153716	2532.489343178	16.857916838
2	2200372	2579.843779034	47.354435856
2	2256443	2636.645023918	56.801244884
2	2282884	2663.206002323	26.560978405
2	2461152	2841.326132797	178.120130474
2	2675368	3054.313135318	212.987002521
2	2824611	3200.545541966	146.232406648
2	2925876	3300.026427122	99.480885156
2	3069965	3442.761362138	142.734935016
2	3119490	3492.684064413	49.922702275
2	3414461	3788.496081173	295.81201676
2	3681464	4054.513482348	266.017401175
2	3801818	4173.615841954	119.102359606
2	3802820	4174.565056061	0.949214107
2	3812537	4184.306415533	9.741359472
2	3915916	4286.637007139	102.330591606
2	4042923	4411.409103646	124.772096507
2	4056417	4424.54110943	13.132005784
2	4111120	4477.417794517	52.876685087
2	4394205	4750.128587266	272.710792749
2	4502712	4853.347868839	103.219281573
2	4701894	5042.057519814	188.709650975
2	5112023	5427.302419509	385.244899695
2	5473287	5764.087696427	336.785276918
2	5536334	5824.452435278	60.364738851
2	5672002	5952.885780903	128.433345625
2	5897568	6165.014829643	212.12904874
2	6042765	6300.128047075	135.113217432
2	6119014	6370.296157477	70.168110402
2	6134281	6384.590141683	14.293984206
2	6301640	6536.853450015	152.263308332
2	6309916	6544.206681407	7.353231392
2	6412816	6637.41748508	93.210803673
2	6416014	6640.194782497	2.777297417
2	6499854	6715.097069548	74.902287051
2	6780764	6967.082576484	251.985506936
2	6855286	7038.626333497	71.543757013
2	6865647	7048.762181552	10.135848055
2	6908270	7089.402651173	40.640469621
2	6947239	7126.320179271	36.917528098
3	78107	150	102
3	117170	200	102
3	156247	250	102
3	195704	300	100
3	234828	350	99
3	273956	400	99
3	312520	450	97
3	351131	500	97
3	390105	550	96
3	429621	600	97
3	469376	650	98
3	509133	700	98
3	548465	750	98
3	589042	800	98
3	630268	850	98
3	671511	900	98
3	712888	950	98
3	753668	1000	97
3	794337	1050	97
3	835260	1100	98
3	877316	1150	98
3	919383	1200	98
3	962191	1250	96
3	1005376	1300	94
3	1049321	1350	94
3	1094002	1400	95
3	1139176	1450	94
3	1184078	1500	93
3	1228686	1550	91
3	1272819	1600	91
3	1317386	1650	92
3	1363210	1700	94
3	1409555	1750	94
3	1455800	1800	94
3	1501599	1850	94
3	1547733	1900	93
3	1594085	1950	93
3	1641075	2000	94
3	1688414	2050	95
3	1736512	2100	96
3	1784273	2150	96
3	1832192	2200	96
3	1880331	2250	96
3	1928458	2300	96
3	1976647	2350	96
3	2024758	2400	97
3	2072813	2450	97
3	2121392	2500	97
3	2170791	2550	97
3	2220416	2600	97
3	2269981	2650	96
3	2319467	2700	96
3	2369278	2750	96
3	2419413	2800	96
3	2469723	2850	97
3	2520266	2900	96
3	2570622	2950	96
3	2620680	3000	96
3	2671078	3050	96
3	2722074	3100	97
3	2772992	3150	97
3	2824030	3200	97
3	2874984	3250	98
3	2925824	3300	98
3	2976880	3350	97
3	3027064	3400	96
3	3077082	3450	96
3	3127025	3500	97
3	3177189	3550	97
3	3226892	3600	96
3	3276723	3650	96
3	3326716	3700	96
3	3376711	3750	96
3	3426271	3800	97
3	3476217	3850	97
3	3526050	3900	97
3	3576451	3950	97
3	3626708	4000	97
3	3676811	4050	96
3	3727059	4100	97
3	3777351	4150	97
3	3828142	4200	97
3	3879060	4250	97
3	3929794	4300	97
3	3980384	4350	97
3	4031263	4400	97
3	4082132	4450	97
3	4134121	4500	98
3	4186436	4550	98
3	4238742	4600	98
3	4290186	4650	98
3	4342186	4700	98
3	4394039	4750	97
3	4446550	4800	95
3	4499261	4850	95
3	4551825	4900	96
3	4604453	4950	96
3	4657271	5000	96
3	4710158	5050	96
3	4763766	5100	96
3	4817008	5150	95
3	4869992	5200	95
3	4923046	5250	94
3	4976372	5300	94
3	5029704	5350	94
3	5083353	5400	94
3	5136758	5450	95
3	5189983	5500	95
3	5243603	5550	95
3	5297245	5600	95
3	5351161	5650	95
3	5404977	5700	94
3	5458414	5750	94
3	5510348	5800	93
3	5562922	5850	94
3	5615858	5900	94
3	5669069	5950	94
3	5722269	6000	95
3	5775117	6050	94
3	5828348	6100	94
3	5881684	6150	93
3	5935245	6200	94
3	5989355	6250	94
3	6042606	6300	92
3	6096446	6350	93
3	6151045	6400	94
3	6206185	6450	94
3	6261265	6500	94
3	6316448	6550	96
3	6371496	6600	95
3	6426862	6650	97
3	6483056	6700	96
3	6539625	6750	97
3	6596459	6800	95
3	6652553	6850	95
3	6708398	6900	95
3	6762240	6950	92
3	6815129	7000	91
3	6867010	7050	93
3	6919744	7100	94
3	6972584	7150	95
3	7025552	7200	95
3	7078817	7250	93
4	158175	252.340131552	252.340131552
4	166379	262.294315032	9.95418348
4	187575	289.171277136	26.876962104
4	290594	421.89176657	132.720489434
4	298703	432.70296378	10.81119721
4	371980	525.907154218	93.204190438
4	527503	723.432101989	197.524947771
4	539928	739.547100444	16.114998455
4	739808	983.700897653	244.153797209
4	834298	1098.708976032	115.008078379
4	878173	1151.112237105	52.403261073
4	923230	1204.554411418	53.442174313
4	936133	1220.396201565	15.841790147
4	950128	1236.596721791	16.200520226
4	973444	1263.123426909	26.526705118
4	986191	1277.992371914	14.868945005
4	1000660	1294.38361913	16.391247216
4	1101590	1408.51362685	114.13000772
4	1135388	1445.716549384	37.202922534
4	1179962	1495.23889125	49.522341866
4	1184710	1500.791102216	5.552210966
4	1312671	1644.709259539	143.918157323
4	1519785	1869.563817044	224.854557505
4	1520786	1870.530541176	0.966724132
4	1653518	2013.523155293	142.992614117
4	1783495	2149.183587883	135.66043259
4	2091207	2468.508995681	319.325407798
4	2146460	2525.160517728	56.651522047
4	2153724	2532.489343178	7.32882545
4	2201146	2580.408567577	47.919224399
4	2206837	2586.14952268	5.740955103
4	2242919	2623.111156378	36.961633698
4	2295862	2676.324181042	53.213024664
4	2484364	2864.765052748	188.440871706
4	2940036	3313.278785485	448.513732737
4	2945623	3318.724648342	5.445862857
4	3005474	3378.211060445	59.486412103
4	3060184	3433.174920393	54.963859948
4	3172844	3545.762355674	112.587435281
4	3634022	4007.380967998	461.618612324
4	3768024	4140.780256408	133.39928841
4	3799500	4171.49018066	30.709924252
4	3806700	4178.396789272	6.906608612
4	3885250	4256.342979368	77.946190096
4	4017440	4386.66203551	130.319056142
4	4045930	4414.381760693	27.719725183
4	4331210	4689.600473237	275.218712544
4	4411242	4766.358948014	76.758474777
4	4423422	4777.643807974	11.28485996
4	4424361	4778.607860599	0.964052625
4	4653856	4996.800456643	218.192596044
4	4761709	5097.946262939	101.145806296
4	4865488	5195.894171793	97.947908854
4	5353659	5652.465857398	456.571685605
4	5444634	5737.3642148	84.898357402
4	5492212	5782.403273238	45.039058438
4	5716728	5994.852240786	212.448967548
4	5820178	6092.19269304	97.340452254
4	5994963	6255.361969644	163.169276604
4	6000262	6260.535090928	5.173121284
4	6100447	6353.586979347	93.051888419
4	6354380	6584.716964956	231.129985609
4	6446212	6666.912376009	82.195411053
4	6539922	6750.261964208	83.349588199
4	6578546	6784.402796644	34.140832436
4	6692433	6885.793425732	101.390629088
4	6704527	6896.693225497	10.899799765
4	6722736	6912.465218199	15.771992702
4	6765548	6953.028638751	40.563420552
4	6784879	6970.945835338	17.917196587
4	7031233	7205.238103899	234.292268561
4	7061215	7233.36442276	28.126318861
