version 2
run HStreamingChurn-0-20140404-23:09:00-8256
attr configname HStreamingChurn
attr datetime 20140404-23:09:00
attr experiment HStreamingChurn
attr inifile htopology.ini
attr iterationvars ""
attr iterationvars2 $repetition=0
attr measurement ""
attr network oversim.underlay.simpleunderlay.SimpleUnderlayNetwork
attr processid 8256
attr repetition 0
attr replication #0
attr resultdir results
attr runnumber 0
attr seedset 0

vector 1  SimpleUnderlayNetwork.globalObserver.globalStatistics  "ParetoChurn: Session Time"  ETV
vector 2  SimpleUnderlayNetwork.globalObserver.globalStatistics  "ParetoChurn: Time between creates"  ETV
vector 3  SimpleUnderlayNetwork.globalObserver.globalStatistics  "GlobalNodeList: Number of nodes"  ETV
vector 4  SimpleUnderlayNetwork.globalObserver.globalStatistics  "ParetoChurn: Time between deletes"  ETV
1	68781	144.074201019	4049.3225882539
1	366846	570.666384515	13409.189214422
1	390432	604.889275726	61.907854005359
1	402952	622.796629741	17250.020190509
1	478781	730.528348663	6831.3114360377
1	516185	783.913080109	494.21034680042
1	656188	982.671835603	1980.5944930496
1	804024	1190.452510686	3602.1912972883
1	817025	1208.887488325	1718.4261858673
1	909649	1341.296647645	5586.1685705549
1	964746	1421.930635339	2677.7067468528
1	1018160	1499.698838664	17292.953464885
1	1076150	1583.408715719	193.61566123786
1	1086740	1598.46805567	913.31849326315
1	1091184	1604.661914796	39501.039419564
1	1129651	1658.514508405	370.00864688889
1	1138294	1670.532420039	532.6059338358
1	1152038	1689.69206605	7188.5093395891
1	1216221	1777.827759497	2172.394932156
1	1278538	1862.663588234	138.82275898644
1	1396094	2021.747200361	5602.3989782111
1	1396994	2022.901609956	1946.4617813114
1	1550297	2227.023994251	4498.5131215153
1	1674636	2391.056628117	25445.367341895
1	1676563	2393.51807536	3176.012145907
1	1734460	2468.508995681	6.0637786800093
1	1820950	2579.843779034	2201.51516898
1	1864999	2636.645023918	2375.155432725
1	2023854	2841.326132797	38.438919951126
1	2296719	3191.101523423	3392.7051038441
1	2304154	3200.545541966	5776.2941800776
1	2484356	3427.817225905	6426.0294705337
1	2772100	3788.496081173	39098.211363025
1	3045194	4128.22151836	126.62847694602
1	3178210	4293.348552463	462.16391037632
1	3203192	4324.138689788	1932.5131894587
1	3356343	4511.449540603	3433.4082737548
1	3385412	4546.758400755	2613.5577904658
1	3428222	4598.175239966	2181.6727050994
1	3469410	4647.318223915	121.31755125733
1	3496297	4679.112466355	26759.435641651
1	3556889	4750.128587266	17638.461992237
1	3609774	4812.132787877	675.04943795323
1	3766239	4990.082211856	7715.7036081504
1	3812231	5042.057519814	1723.2044443941
1	3877421	5115.142910636	4969.391765157
1	4150962	5419.646454589	49937.887438728
1	4364750	5656.148465503	43588.414981015
1	4649952	5963.474935814	699.25371936714
1	4823863	6149.18476588	2408.6390968872
1	4967012	6300.128047075	3290.0568871846
1	5175347	6520.142571052	525.28370414222
1	5198322	6544.206681407	47306.653128966
1	5317838	6669.525672082	2422.3666779297
1	5398942	6754.323698883	11465.816306569
1	5626616	6991.89676488	19041.90638591
1	5645893	7011.988482217	2047.7370797663
1	5681322	7048.762181552	1603.5940872935
1	5738686	7107.853694268	154.68444851058
1	5756791	7126.320179271	9542.2902520993
1	5813043	7183.46246265	388.59557090872
2	68781	144.074201019	45.269925976
2	366846	570.666384515	426.592183496
2	390432	604.889275726	34.222891211
2	402952	622.796629741	17.907354015
2	478781	730.528348663	107.731718922
2	516185	783.913080109	53.384731446
2	656188	982.671835603	198.758755494
2	804024	1190.452510686	207.780675083
2	817025	1208.887488325	18.434977639
2	909649	1341.296647645	132.40915932
2	964746	1421.930635339	80.633987694
2	1018160	1499.698838664	77.768203325
2	1076150	1583.408715719	83.709877055
2	1086740	1598.46805567	15.059339951
2	1091184	1604.661914796	6.193859126
2	1129651	1658.514508405	53.852593609
2	1138294	1670.532420039	12.017911634
2	1152038	1689.69206605	19.159646011
2	1216221	1777.827759497	88.135693447
2	1278538	1862.663588234	84.835828737
2	1396094	2021.747200361	159.083612127
2	1396994	2022.901609956	1.154409595
2	1550297	2227.023994251	204.122384295
2	1674636	2391.056628117	164.032633866
2	1676563	2393.51807536	2.461447243
2	1734460	2468.508995681	74.990920321
2	1820950	2579.843779034	111.334783353
2	1864999	2636.645023918	56.801244884
2	2023854	2841.326132797	204.681108879
2	2296719	3191.101523423	349.775390626
2	2304154	3200.545541966	9.444018543
2	2484356	3427.817225905	227.271683939
2	2772100	3788.496081173	360.678855268
2	3045194	4128.22151836	339.725437187
2	3178210	4293.348552463	165.127034103
2	3203192	4324.138689788	30.790137325
2	3356343	4511.449540603	187.310850815
2	3385412	4546.758400755	35.308860152
2	3428222	4598.175239966	51.416839211
2	3469410	4647.318223915	49.142983949
2	3496297	4679.112466355	31.79424244
2	3556889	4750.128587266	71.016120911
2	3609774	4812.132787877	62.004200611
2	3766239	4990.082211856	177.949423979
2	3812231	5042.057519814	51.975307958
2	3877421	5115.142910636	73.085390822
2	4150962	5419.646454589	304.503543953
2	4364750	5656.148465503	236.502010914
2	4649952	5963.474935814	307.326470311
2	4823863	6149.18476588	185.709830066
2	4967012	6300.128047075	150.943281195
2	5175347	6520.142571052	220.014523977
2	5198322	6544.206681407	24.064110355
2	5317838	6669.525672082	125.318990675
2	5398942	6754.323698883	84.798026801
2	5626616	6991.89676488	237.573065997
2	5645893	7011.988482217	20.091717337
2	5681322	7048.762181552	36.773699335
2	5738686	7107.853694268	59.091512716
2	5756791	7126.320179271	18.466485003
2	5813043	7183.46246265	57.142283379
3	73189	150	102
3	109333	200	102
3	145555	250	102
3	180796	300	100
3	215323	350	99
3	249926	400	99
3	284298	450	97
3	318456	500	97
3	352630	550	96
3	387052	600	97
3	422194	650	99
3	457429	700	98
3	492644	750	98
3	527484	800	98
3	562739	850	98
3	597992	900	98
3	633301	950	98
3	668574	1000	98
3	704321	1050	98
3	740079	1100	98
3	775509	1150	97
3	810776	1200	98
3	846535	1250	97
3	881854	1300	94
3	915672	1350	94
3	949722	1400	94
3	983943	1450	94
3	1018396	1500	94
3	1053117	1550	93
3	1087903	1600	95
3	1123521	1650	96
3	1159553	1700	98
3	1196001	1750	98
3	1232535	1800	98
3	1269219	1850	98
3	1306058	1900	98
3	1343030	1950	98
3	1380023	2000	98
3	1417342	2050	98
3	1454971	2100	98
3	1492568	2150	98
3	1529968	2200	97
3	1567635	2250	97
3	1605551	2300	97
3	1643523	2350	97
3	1681566	2400	99
3	1720124	2450	99
3	1758890	2500	99
3	1797735	2550	98
3	1836633	2600	98
3	1875353	2650	98
3	1914217	2700	97
3	1952974	2750	97
3	1991753	2800	97
3	2030649	2850	98
3	2069760	2900	97
3	2108822	2950	96
3	2147762	3000	95
3	2186682	3050	95
3	2225672	3100	95
3	2264670	3150	95
3	2303743	3200	96
3	2343445	3250	97
3	2383106	3300	97
3	2422658	3350	95
3	2462273	3400	95
3	2502066	3450	95
3	2541917	3500	95
3	2581790	3550	95
3	2621598	3600	94
3	2661501	3650	94
3	2701415	3700	94
3	2741385	3750	94
3	2781415	3800	95
3	2821717	3850	95
3	2861957	3900	95
3	2902229	3950	95
3	2942275	4000	93
3	2982461	4050	93
3	3022614	4100	92
3	3062860	4150	93
3	3103064	4200	90
3	3143355	4250	90
3	3183642	4300	90
3	3224447	4350	91
3	3265370	4400	91
3	3306161	4450	89
3	3346984	4500	89
3	3388178	4550	91
3	3429794	4600	92
3	3471727	4650	93
3	3514187	4700	94
3	3556794	4750	94
3	3599348	4800	90
3	3643090	4850	91
3	3687063	4900	91
3	3730984	4950	91
3	3775127	5000	92
3	3819345	5050	92
3	3863939	5100	92
3	3908786	5150	92
3	3953643	5200	92
3	3998609	5250	92
3	4043524	5300	92
3	4088427	5350	92
3	4133331	5400	92
3	4178505	5450	93
3	4223672	5500	92
3	4268935	5550	92
3	4314087	5600	91
3	4359175	5650	91
3	4404694	5700	92
3	4450193	5750	92
3	4496926	5800	90
3	4543783	5850	90
3	4590581	5900	90
3	4637370	5950	90
3	4684166	6000	91
3	4730976	6050	91
3	4777822	6100	91
3	4824662	6150	92
3	4872086	6200	92
3	4919565	6250	92
3	4966912	6300	90
3	5014219	6350	91
3	5061607	6400	91
3	5108918	6450	91
3	5156320	6500	91
3	5203906	6550	93
3	5251796	6600	92
3	5299304	6650	92
3	5347014	6700	92
3	5394803	6750	91
3	5442596	6800	89
3	5490639	6850	89
3	5538877	6900	89
3	5586730	6950	86
3	5634410	7000	86
3	5682568	7050	87
3	5731088	7100	87
3	5780128	7150	89
3	5829396	7200	89
3	5878603	7250	89
4	147199	252.340131552	252.340131552
4	154489	262.294315032	9.95418348
4	173356	289.171277136	26.876962104
4	264941	421.89176657	132.720489434
4	272395	432.70296378	10.81119721
4	336330	525.907154218	93.204190438
4	423499	651.797129731	125.889975513
4	473787	723.432101989	71.634972258
4	485176	739.547100444	16.114998455
4	656930	983.700897653	244.153797209
4	739165	1098.708976032	115.008078379
4	813979	1204.554411418	105.845435386
4	825264	1220.396201565	15.841790147
4	836940	1236.596721791	16.200520226
4	855782	1263.123426909	26.526705118
4	866345	1277.992371914	14.868945005
4	878017	1294.38361913	16.391247216
4	955558	1408.51362685	114.13000772
4	981026	1445.716549384	37.202922534
4	1015096	1495.23889125	49.522341866
4	1119708	1644.709259539	149.470368289
4	1204713	1762.024376956	117.315117417
4	1284292	1870.530541176	108.50616422
4	1370129	1986.48634722	115.955806044
4	1389981	2013.523155293	27.036808073
4	1491915	2149.183587883	135.66043259
4	1520989	2188.138353874	38.954765991
4	1734468	2468.508995681	280.370641807
4	1756390	2496.786548933	28.277553252
4	1821466	2580.408567577	83.622018644
4	1854433	2623.111156378	42.702588801
4	1895749	2676.324181042	53.213024664
4	2042200	2864.765052748	188.440871706
4	2079327	2912.313674192	47.548621444
4	2107452	2948.266328652	35.95265446
4	2393691	3313.278785485	365.012456833
4	2398048	3318.724648342	5.445862857
4	2488580	3433.174920393	114.450272051
4	2578382	3545.762355674	112.587435281
4	2890291	3935.222691652	389.460335978
4	2905704	3954.363391267	19.140699615
4	3010225	4084.637382191	130.273990924
4	3055354	4140.780256408	56.142874217
4	3080139	4171.49018066	30.709924252
4	3085698	4178.396789272	6.906608612
4	3135170	4239.849995306	61.453206034
4	3254430	4386.66203551	146.812040204
4	3277136	4414.381760693	27.719725183
4	3548713	4740.512462839	326.130702146
4	3559935	4753.635775172	13.123312333
4	3570799	4766.358948014	12.723172842
4	3580469	4777.643807974	11.28485996
4	3581274	4778.607860599	0.964052625
4	3772174	4996.800456643	218.192596044
4	3862133	5097.946262939	101.145806296
4	4198537	5472.18222583	374.235962891
4	4272975	5554.530221267	82.347995437
4	4438702	5737.3642148	182.833993533
4	4480388	5782.403273238	45.039058438
4	4911602	6241.651879246	459.248606008
4	4924602	6255.361969644	13.710090398
4	5221995	6568.806627267	313.444657623
4	5297094	6647.728655181	78.922027914
4	5357073	6710.537115766	62.808460585
4	5395046	6750.261964208	39.724848442
4	5409076	6764.847945065	14.585980857
4	5427758	6784.402796644	19.554851579
4	5525120	6885.793425732	101.390629088
4	5535652	6896.693225497	10.899799765
4	5550834	6912.465218199	15.771992702
4	5589683	6953.028638751	40.563420552
4	5663605	7030.426275194	77.397636443
4	5775432	7145.31619122	114.889916026
4	5876183	7247.538142778	102.221951558
