version 2
run HStreamingChurn-0-20140414-11:58:00-8468
attr configname HStreamingChurn
attr datetime 20140414-11:58:00
attr experiment HStreamingChurn
attr inifile htopology.ini
attr iterationvars ""
attr iterationvars2 $repetition=0
attr measurement ""
attr network oversim.underlay.simpleunderlay.SimpleUnderlayNetwork
attr processid 8468
attr repetition 0
attr replication #0
attr resultdir results
attr runnumber 0
attr seedset 0

vector 1  SimpleUnderlayNetwork.globalObserver.globalStatistics  "ParetoChurn: Session Time"  ETV
vector 2  SimpleUnderlayNetwork.globalObserver.globalStatistics  "ParetoChurn: Time between creates"  ETV
vector 3  SimpleUnderlayNetwork.globalObserver.globalStatistics  "ParetoChurn: Time between deletes"  ETV
vector 4  SimpleUnderlayNetwork.globalObserver.globalStatistics  "GlobalNodeList: Number of nodes"  ETV
1	3968801	1000.519880386	2192.0746567953
1	4062107	1012.252586602	431013.59881432
1	4082463	1014.787358013	177.03889549512
1	4102498	1017.254649933	647.54797725579
1	4150730	1023.307928437	13415.330177643
1	4219536	1032.006196179	62541.598370234
1	4397994	1054.270128471	192516.62388306
1	4544019	1072.595033575	453.98886557576
1	4587584	1077.925976684	258.33450810943
1	4627134	1082.875100988	2597.2442945988
1	4665386	1087.724926786	7353.9396920166
1	4723350	1094.965493659	14855.337197881
1	4738178	1096.759185249	2981.5716095317
1	4999744	1129.337995927	12917.280292895
1	5042473	1134.606686524	16.075903618408
1	5418403	1181.290668956	798.90370259517
1	5468945	1187.604485764	2993.8430272419
1	5476462	1188.577464503	510.9638934796
1	5651985	1210.345473587	56042.584226433
1	5689564	1215.044772407	1922.5904249177
1	5720876	1218.888711145	85638.890165598
1	5881514	1238.721027438	825.99119973556
1	5956067	1247.963537059	1816.7796666411
1	6030052	1257.13173134	2955.3641540585
1	6056637	1260.389164941	8788.7777898452
1	6225702	1281.259724755	355.88171707515
1	6270023	1286.681988253	38.55471570578
1	6371267	1299.085392269	434.70297632504
1	6420180	1305.162727523	374.12349875384
1	6467120	1310.894980756	4376.1662683272
1	6516529	1316.935805154	329.38541252553
1	6552027	1321.234660482	1433.1580674037
1	6804191	1352.092668268	31637.305639667
1	6921746	1366.498786865	2751.1163626805
1	7111442	1389.589975831	145.86589819618
1	7252459	1406.857754436	7425.5924160392
1	7299078	1412.489859811	1546.1710103907
1	7376380	1421.866130059	1920.5277338805
1	7477257	1434.488384662	506.51965301293
1	7523408	1440.173036223	21886.152783647
1	7658335	1456.538084623	605.29877523698
1	7733852	1465.904795427	1142.3066058324
1	7772534	1470.955641882	1401.6342125512
1	7776541	1471.479261067	490.99435624584
1	7871146	1484.154367515	2984.5335844044
1	7897230	1487.725486188	1393.6701838373
1	7907359	1489.081346737	775.95685181234
1	7966245	1497.021632836	9403.5189685829
1	8026047	1505.060372728	1118.5009835539
1	8098277	1514.910238797	22847.442813741
1	8103505	1515.58654687	504.28706713674
1	8103650	1515.600602221	827.14289137219
1	8129318	1519.078984951	2007.086726016
1	8225547	1531.96802768	221.80702734232
1	8313002	1543.636467732	1528.5098716437
1	8389024	1553.911582491	1429.2825144221
1	8395186	1554.752429683	310.611389118
1	8406144	1556.188490858	9506.1279679462
1	8467824	1564.403237407	202.00350259758
1	8581253	1579.691585178	5575.9589852496
1	8767362	1604.570304474	8713.0642999608
1	8780603	1606.209410329	869.45873074518
1	8785266	1606.823703921	335.08291541175
1	8823751	1611.98137413	890.19497061638
1	8842402	1614.503017613	387.35219995908
1	8911947	1623.993798195	1861.0354132858
1	9019732	1638.934507286	1011.2660440188
1	9050385	1643.114948419	822.65758242975
1	9072491	1646.174807315	2981.4930920801
1	9125488	1653.491704483	7685.3086247479
1	9234883	1668.574643632	43.337112807944
1	9309470	1678.860977794	3363.0205819453
1	9317594	1679.943586807	207.86287446253
1	9408587	1692.391951458	48.953550997793
1	9493775	1703.931459931	456.65455413238
1	9522744	1707.833473164	429.31743673949
1	9535509	1709.52408864	83684.478169937
1	9661471	1726.422174626	89645.501131736
1	9696839	1731.248196229	86.962354316316
1	9836432	1749.808863071	74.087632201664
1	9886065	1756.56715117	1305.5670179126
1	10018353	1774.248000487	66.879079427215
1	10039828	1777.137811887	239.86424061191
1	10268041	1807.700771132	211.26200215508
1	10357300	1819.693491643	688.26347880483
1	10402858	1825.810274466	3285.4493438811
1	10403331	1825.877956853	51.383904111685
1	10519734	1841.387690332	6476.5411422937
1	10625696	1855.515651084	34958.761586356
1	10653837	1859.325455329	4509.3029734167
1	10665226	1860.80715412	34.161810004958
1	10828561	1882.607845557	1885.5680559749
1	10918469	1894.505275807	9335.429921917
1	10957399	1899.755600121	3954.4760454354
1	11152751	1925.831894823	1343.7790986242
1	11256142	1939.847882978	12083.852635575
1	11273236	1942.183276726	26868.753275106
1	11464921	1968.257385933	32692.490158346
1	11475163	1969.694685364	5638.3384045212
1	11495641	1972.750647539	34051.289357599
1	11566024	1983.055760153	138.86891919482
1	11573563	1984.151681526	4074.9160196494
1	11619754	1990.992881732	13535.661842256
1	11629474	1992.454816237	10666.334500619
1	11654627	1996.194975986	5635.3768792075
1	11661943	1997.31687594	188.82765146004
1	11662375	1997.375360739	96.159828022824
1	11687741	2001.063575877	1992.1975731576
1	11713346	2004.88670353	124.10648610641
1	11827668	2021.818927726	1435.4253151891
1	11828765	2021.951491927	16445.074772636
1	11843515	2024.030086934	6095.4671575797
1	12037562	2052.616853631	93.050184802889
1	12077538	2058.589322026	1624.3232219091
1	12086301	2059.872371668	1840.4519380154
1	12167718	2071.865523304	318.23456815888
1	12236438	2082.009469962	64982.261992085
1	12321338	2094.465416193	272.48801132427
1	12406849	2107.000207508	44061.29637234
1	12544512	2127.189990553	1857.7276909443
1	12679689	2146.936426971	17733.23554407
1	12720933	2152.977675099	39645.582208115
1	12740363	2155.864228237	954.48371372699
1	12830688	2169.095490714	11363.454108437
1	12831713	2169.250918224	70633.512978517
1	12856078	2172.772740505	441.29296460551
1	12935359	2184.45131888	39124.420125247
1	12936155	2184.56467375	1301.5759060495
1	13000967	2193.958317835	4235.9651445457
1	13011010	2195.406648339	19864.887083279
1	13016986	2196.287526693	9077.3593626387
1	13290224	2235.872103952	4427.1360868048
1	13304292	2237.946767666	72.98773700847
1	13336850	2242.687831536	29200.73999318
1	13338780	2242.964373856	417.75553277654
1	13432852	2256.595667714	88.156786391711
1	13615101	2282.925959515	893.48686912113
1	13825036	2313.338594046	10248.389161994
1	13828121	2313.770647032	41002.253834773
1	13867600	2319.416528555	334.03263089595
1	13903674	2324.66920224	1015.1380324143
1	13949551	2331.165563993	2564.0934622404
1	14216377	2369.877729984	4309.7789872374
1	14220266	2370.438208508	484.39056903201
1	14223648	2370.913270796	695.7469838953
1	14637760	2430.737273084	9741.6736224312
1	14908347	2469.785719483	2712.2096261028
1	14939091	2474.231721888	669.29537809561
1	15067902	2492.857543609	1100.2088955267
1	15069823	2493.099174618	4715.673814843
1	15099247	2497.364610186	7836.5949498571
1	15127470	2501.427680494	43.266073713969
1	15195707	2511.156827349	3061.2512908147
1	15237144	2517.123116144	37.813474963134
1	15326181	2530.010458526	520.11708417073
1	15369065	2536.160599518	4538.8598957975
1	15496847	2554.537968186	734.16552190176
1	15592215	2568.175276626	4042.7241164202
1	15596120	2568.765236718	19371.2318524
1	15626388	2573.095196697	9703.6419554757
1	15646828	2576.028684781	864.61054589335
1	15672120	2579.743760755	21361.20311176
1	15688975	2582.222636266	29248.413060251
1	15829172	2602.46681962	935.91052149612
1	16020359	2630.121244758	16293.120250817
1	16147649	2648.534994195	6479.6045103244
1	16225762	2659.793703224	2501.049845827
1	16340977	2676.516864431	293.44915606582
1	16352531	2678.196133499	3019.6316591397
1	16475401	2695.795249248	3574.348789341
1	16488857	2697.700284366	185.47414939559
1	16516285	2701.705635234	1855.627419536
1	16533229	2704.144371094	496.24029559236
1	16543761	2705.699194791	5240.8045054338
1	16561414	2708.225755215	39552.834284967
1	16685340	2726.006219567	2807.9914092033
1	16705212	2728.910399203	249.305976448
1	16721614	2731.276329897	3922.7550282293
1	16784063	2740.192456329	48611.652154991
1	16799160	2742.365223129	265.41298514411
1	16862855	2751.339162784	888.10891509228
1	16907725	2757.726811589	2400.4328230739
1	17078693	2782.074255843	53783.03464037
1	17121511	2788.271754426	1974.261882401
1	17229654	2803.725178724	456.24776568819
1	17473130	2838.27531591	3790.8672407
1	17570817	2852.171951883	18213.978752181
1	17623399	2859.690552148	2504.2950061534
1	17840096	2890.34632261	819.55114368052
1	17968651	2908.548227337	33040.663824262
1	18086814	2925.297030948	3285.1682972576
1	18100722	2927.203008465	9272.4673782283
1	18174910	2937.636133378	459072.99659361
1	18368246	2964.903194395	2091.5139626793
1	18499022	2983.492241026	874.29190702961
1	18502732	2983.95043319	2002.8313294034
1	18578858	2994.627409866	145.55565964402
1	18631398	3002.001086384	2621.8316374038
1	18642183	3003.546558309	2812.5284614048
1	18710630	3013.116287757	728.2029111609
1	18714074	3013.65827453	109225.38020618
1	18979042	3050.849372241	11676.5549612
1	19003282	3054.199657651	7446.8108912969
1	19161296	3076.393402288	1997.7651308392
1	19161898	3076.47221713	26626.570919904
1	19198839	3081.71064906	1354.7820452972
1	19216826	3084.144506119	2036.3652934181
1	19298269	3095.652165549	590.21597021345
1	19313306	3097.817685277	2017.8100954542
1	19322256	3099.004178459	220.62232892511
1	19384100	3107.74167823	142.66199515402
1	19437720	3115.09604639	1252.860560343
1	19449801	3116.81106881	1031.7998045132
1	19552707	3131.234338401	3396.0598135136
1	19645921	3144.191142818	520.32085096529
1	19803115	3166.132892574	1264.4413699618
1	19846038	3172.058077874	1229.1475645516
1	19886200	3177.593095156	3595.0862872752
1	19970553	3189.295482552	2366.4399515179
1	20000812	3193.508766951	42.323445437083
1	20019688	3196.075920435	115.25452501786
1	20057249	3201.395447449	56621.337761033
1	20074408	3203.760462536	1545.3423790302
1	20180057	3218.370544267	11902.926606917
1	20232908	3225.696838983	1608.0260734129
1	20240901	3226.785127422	4920.8792816719
1	20303149	3235.270741327	818.06368507367
1	20362007	3243.332403337	240.96964675594
1	20439491	3253.95922223	2453.4001020471
1	20589866	3274.697046364	47245.032592943
1	20606986	3277.062740386	27.576017740106
1	20648678	3282.744566759	232.95863530163
1	20677262	3286.701590766	1233.4949438047
1	20987894	3329.099107259	1520.797760973
1	21092368	3343.523324323	71.080668487122
1	21235844	3363.02880543	22650.307641145
1	21373315	3381.821186838	294.51979111115
1	21376957	3382.36822842	8433.2409227407
1	21392861	3384.595351375	10784.076525928
1	21437773	3390.572420651	3109.5800853258
1	21533441	3403.662875115	3740.8756021628
1	21611396	3414.234289436	887.73115650749
1	21621987	3415.663743174	6216.4606974292
1	21653904	3419.928908342	689.18036224284
1	21688152	3424.6993499	741.40657689271
1	21695183	3425.620977278	32.596799725051
1	21919957	3456.367341936	650.91592656952
1	22006577	3467.963416231	257.35126480185
1	22097689	3480.197692496	131.19936417675
1	22099231	3480.431352328	5141.2751776011
1	22126932	3484.1823956	57415.323511711
1	22130465	3484.665552271	5830.5189032452
1	22242443	3499.745760161	16498.814150954
1	22243572	3499.901137153	933.20710926613
1	22244284	3499.990424348	12556.953622064
1	22251753	3500.94678378	3120.1119806564
1	22290140	3506.145176765	2188.8669985042
1	22387669	3519.163300442	4596.0856318566
1	22558310	3541.996087223	1261.3502321835
1	22597947	3547.403804895	212.62409810973
1	22826660	3577.987016032	4308.6731837917
1	22865400	3583.136373456	3688.8397515358
1	22935601	3592.605600039	2030.8547186422
1	22961470	3595.998250502	1163.029489893
1	23094156	3613.581852749	5764.5192775966
1	23176091	3624.490034896	1036.6840860083
1	23183137	3625.44744497	3394.4628157366
1	23262426	3635.965403771	1528.2242711976
1	23294763	3640.333174377	6291.0011582126
1	23350405	3647.773419995	578.05189415407
1	23444701	3660.282186194	146.18974579379
1	23594134	3680.041078251	5951.7100252813
1	23604870	3681.471501096	1115.6348477512
1	23690366	3692.782567392	618.28195613313
1	23791054	3706.001682938	441.74193081959
1	23822365	3710.155824213	424.67498915107
1	23850031	3713.868234235	177.50818770982
1	23912676	3722.018476703	11190.174914985
1	24114687	3748.658160042	6688.3248852371
1	24319728	3775.914154897	473234.01291301
1	24352035	3780.112283391	2810.5699608871
1	24357786	3780.856476064	30865.012362346
1	24431338	3790.563065754	3734.1427401469
1	24442816	3792.048686396	455.06150146359
1	24581479	3810.408606448	18378.083484502
1	24597620	3812.504135993	9449.0958963108
1	24606183	3813.63665146	985.14262684822
1	24649662	3819.39171819	3798.922095785
1	24671098	3822.167494018	207.47433790678
1	24678554	3823.164127353	423.93097163415
1	24778158	3836.386597067	171.4414087018
1	24833835	3843.587787099	4383.1223421569
1	24845883	3845.104087731	2471.4536146148
1	24885643	3850.430356038	13037.686239935
1	25158470	3886.201500688	2000.4233964419
1	25327302	3908.297034185	357.39541317401
1	25351378	3911.504788519	504.87015243197
1	25542570	3936.555917147	6773.4524062298
1	25671681	3953.518976772	11610.813943378
1	25686008	3955.419737792	223.6680192768
1	25719348	3959.80218613	1387.0364295457
1	25906371	3984.154665957	366.98774768156
1	25957148	3990.749139755	524.0248962393
1	26046027	4002.347981577	3236.3256588509
1	26170020	4018.641708761	1451.432396995
1	26246997	4028.541052376	24746.414447013
1	26494113	4060.62647068	18.740716518429
1	26577036	4071.420208132	2073.8477735425
1	26600545	4074.547764363	121.98731367834
1	26659094	4082.181553999	8825.1409624681
1	26753160	4094.273463129	440.90537911672
1	26901674	4113.555320846	25061.8270011
1	26986571	4124.548527112	9.0656699766203
1	27220265	4154.96605563	23649.765875418
1	27396781	4177.922930303	17581.156674358
1	27419655	4180.892356449	1072.2495124672
1	27480111	4188.793553984	213490.7817881
1	27543643	4197.136429706	15568.162666187
1	27557939	4199.000850761	3657.8498755404
1	27571978	4200.823455581	153.36928410572
1	27595089	4203.8394909	3607.0221531598
1	27632634	4208.5840295	520.50463523228
1	27744182	4223.126359897	80607.180707098
1	27760293	4225.198221338	8259.0654666471
1	27819957	4232.946196737	5622.4846637355
1	27826170	4233.759536171	209.59247056728
1	27868143	4239.24479578	1749.320432219
1	27892631	4242.361936314	2523.5671244672
1	27916181	4245.439176996	141.58842278617
1	27919093	4245.798724069	4708.3600024878
1	27943295	4248.948166594	727.39569397746
1	27947837	4249.541892454	4953.3950445115
1	28033620	4260.765159327	131346.5978944
1	28060714	4264.240912738	40.813333816845
1	28156600	4276.5824587	8719.1228023821
1	28192541	4281.207350941	5.3046920968255
1	28748057	4352.872120375	51.861760029908
1	28940862	4377.754458044	351.22699016993
1	29057527	4392.747703458	9058.6019482949
1	29072676	4394.793419201	14907.857786125
1	29122508	4401.164064279	441.26634846096
1	29142474	4403.683146969	12987.670883
1	29183156	4408.895324388	38905.298607343
1	29197248	4410.761121708	1647.1699374602
1	29322133	4426.743413375	1354.0304670272
1	29384593	4434.720692884	1994.9615084309
1	29445658	4442.687691626	95.635768425464
1	29506397	4450.464762264	4084.5678532783
1	29569235	4458.476322558	33314.623196626
1	29679338	4472.553892061	1542.6233038599
1	29763671	4483.289637767	6612.7164577603
1	29781473	4485.524317794	9685.7389012563
1	29830317	4491.735496459	4544.8344015445
1	29972135	4509.978625291	315.09402188368
1	30131468	4530.185242569	990.46992617015
1	30163248	4534.296150387	563.72979918984
1	30247278	4544.932676159	46.467613949747
1	30420205	4567.053591419	1.1752897720666
1	30684996	4600.685431631	4789.3076959946
1	30726822	4605.989331583	5657.601306515
1	30764107	4610.709767009	45600.292136156
1	30783204	4613.139895708	7707.8146436909
1	30784882	4613.362455233	3277.345983838
1	30844997	4620.987897685	673.95135362469
1	30990935	4639.465569533	9313.3618153918
1	31073340	4649.768767705	445.1658861457
1	31258705	4673.161833041	96.878373950269
1	31330501	4682.325463073	9660.78767263
1	31344466	4684.106549466	13959.274778946
1	31673246	4725.689039467	4178.0880975328
1	31698916	4728.858071117	18505.048869216
1	31800329	4741.654693718	531.35437036848
1	31828975	4745.342665707	163.37869434816
1	31963233	4762.200727468	1077.2923877773
1	31974339	4763.60762142	1435.871805968
1	32031949	4770.876944358	286.60917682654
1	32271796	4801.032824769	580.50776904858
1	32310955	4806.097730651	2636.5552567516
1	32316014	4806.751079437	656.45296915459
1	32412027	4818.906963846	10369.524989296
1	32431527	4821.369168134	8637.9375790868
1	32459680	4824.875668752	3092.5728906535
1	32484297	4828.037068968	275.14085854147
1	32517810	4832.240105101	3065.8660658291
1	32521748	4832.731947803	1189.2009478531
1	32527566	4833.456165512	22384.168665568
1	32667246	4851.080824097	8340.7010983469
1	32696551	4854.806655691	38.600572674813
1	32734374	4859.572375478	430.00749173288
1	32740388	4860.296728072	888.00769402013
1	32846606	4873.919579037	105.05760624927
1	32858198	4875.474448974	27401.382202642
1	33171954	4916.293170411	91.307385270426
1	33199251	4919.967874244	4578.0578645323
1	33444599	4953.405521992	235.55199984017
1	33466468	4956.310399277	7743.166120292
1	33493360	4959.998517309	1564.8645927964
1	33558199	4968.817852216	36.090293634785
1	33747042	4994.506189168	9453.1054030101
1	33772010	4997.782350396	128.06502750771
1	33813936	5003.485266884	1345.354512059
1	33874204	5011.629443844	1135.3736253457
1	33928815	5018.956748434	33179.453610571
1	34045382	5034.613011081	99.125216017354
1	34112474	5043.617874184	47934.399437036
1	34214613	5057.658220091	300.28200781318
1	34227087	5059.307461555	3361.6887449394
1	34341289	5074.687183073	409.44991015085
1	34425723	5086.038875604	59.523581725931
1	34516650	5098.070625469	1855.3296374578
1	34530844	5099.907117308	483.04847387459
1	34724733	5125.745740525	52.752304314265
1	34909616	5150.290749084	4183.8758724781
1	34951485	5155.734445781	6901.8442952685
1	34969501	5158.159436017	994.04646774669
1	35062267	5170.491080528	3384.8018159545
1	35079696	5172.725185245	2024.7324103617
1	35102355	5175.790377587	2040.6689577588
1	35102446	5175.80387081	45081.417792554
1	35107379	5176.497014822	375.46690880353
1	35113852	5177.37408453	106.87083060229
1	35135406	5180.154833048	74856.227808593
1	35253230	5195.655694662	12424.346878364
1	35328427	5205.621001741	441.9705564714
1	35588018	5239.833262408	399.84948172401
1	35630735	5245.41014582	13247.036742295
1	35689184	5253.052778139	2332.970582332
1	35890611	5279.459756811	16260.398384906
1	35963640	5289.116477681	61815.341427727
1	36157532	5314.6289109	226.86138303249
1	36195160	5319.522768282	14897.161397236
1	36535268	5364.447719005	5101.1589659125
1	36622539	5375.865073111	42106.305746004
1	36650108	5379.400154032	263475.60740044
1	36782044	5396.755999721	7035.039241771
1	36836433	5403.836657932	39.496530457404
1	36878059	5409.342750271	2083.9590353314
1	36902478	5412.550692742	134.78166679164
1	37125861	5441.713310618	10019.906108775
1	37173079	5447.984516288	5153.0257613843
1	37183199	5449.285686836	93.733969681539
1	37199042	5451.363121013	1445.1985036511
1	37277672	5461.568258401	2225.0730297163
1	37296992	5464.085592932	223.25803703754
1	37513556	5492.501600155	3379.6107115524
1	37609690	5504.921745336	218.52310500419
1	37621872	5506.591683126	5053.3920532999
1	37623329	5506.753305334	8697.1540800735
1	37631005	5507.753172017	238.7286020089
1	37769132	5525.643890051	4691.0833873122
1	37859539	5537.586890296	1232.3101645037
1	37897916	5542.563950182	820.28381726561
1	37912382	5544.47323922	26382.786109037
1	37972207	5552.108950231	4106.7070280669
1	37995544	5555.101248767	2597.3456324376
1	38163674	5577.205367651	34978.116579115
1	38200334	5581.908879798	1812.1850971245
1	38238531	5586.848832408	1516887.7242501
1	38316598	5597.107440343	190.10675027112
1	38493749	5620.081542677	43286.134036933
1	38546677	5626.877332633	1860.0905147699
1	38572577	5630.308530978	16219.049669871
1	38779450	5658.006965542	40.32201628494
1	38859246	5668.811872761	496.96460372884
1	38936915	5679.184892631	2891.914570843
1	39221886	5717.420760679	466.6261178544
1	39228443	5718.276095537	5306.4631063812
1	39239855	5719.836955248	17027.658049316
1	39313568	5729.767464805	5626.9711214653
1	39488587	5753.20344585	162.92547967629
1	39604034	5768.578825797	475.66036830476
1	39824709	5798.128461907	130.7894405849
1	39825954	5798.299521903	89.907937117329
1	39835580	5799.565537397	19817.857058269
1	39948282	5814.641369364	89.479113530913
1	39994065	5820.712217716	924.92077044047
1	40007786	5822.581557946	21906.407479624
1	40030503	5825.523227371	3353.505499929
1	40066447	5830.333291827	31641.423253804
1	40176853	5845.162002755	4144.2354695655
1	40295232	5860.822328916	819.6665031839
1	40313983	5863.367419876	2780.9241263538
1	40411997	5876.408172638	740.47387414343
1	40502563	5888.266615759	30485.165238296
1	40619510	5903.887714663	6361.6795338445
1	40664687	5909.916480717	232.32312075813
1	40832273	5931.982645394	645.5618960108
1	40874895	5937.648800833	4073.844976418
1	41014658	5956.094189455	1589.629587956
1	41133880	5971.902265494	15944.995584455
1	41164659	5975.842344253	56.703101825677
1	41240834	5985.901092409	272.75952282809
1	41272941	5990.05183316	4964.7309101079
1	41564843	6029.597285591	5599.7540129258
1	41665139	6043.286616759	2939.8970760104
1	41850902	6068.746187875	43797.922342758
1	41855921	6069.472487407	25322.927727471
1	41892960	6074.540249057	6.3511228183362
1	41980150	6086.745333787	125.39401531339
1	42097736	6103.18811843	146.86170403415
1	42117129	6105.870944513	1819.0488456391
1	42207678	6118.689803848	201.52549646441
1	42230904	6121.943076795	3123.4070138264
1	42300271	6131.646539937	1507.8603551697
1	42462568	6154.734370908	6223.4311296311
1	42480768	6157.249331927	9158.5072932629
1	42496673	6159.432277263	3283.7102384073
1	42555080	6167.641958385	164.29922227677
1	42612250	6175.63362136	142.68713841987
1	42627902	6177.830699429	23879.945759788
1	42767915	6197.513955397	14888.191787988
1	42792875	6201.036548379	1224.146249229
1	42972605	6226.331707492	3987.7357455511
1	43009368	6231.520840959	191.09587423765
1	43041400	6236.036516173	290.34746107058
1	43117264	6246.672291923	326.40854613622
1	43179144	6255.398942786	63119.742422547
1	43188381	6256.651618424	760.04723739124
1	43258523	6266.544203989	14275.724591049
1	43316230	6274.700640274	241.14874530633
1	43317562	6274.896729689	24898.877363054
1	43341586	6278.210203913	116.37190262997
1	43361226	6280.886434313	456.11358306222
1	43424055	6289.640807795	19.696439404574
1	43551441	6307.396775562	25516.243192319
1	43708342	6329.312498119	3364.2823031771
1	43755025	6335.82937964	47961.676829589
1	43780318	6339.31731777	13622.668449046
1	43839252	6347.396779416	344.34185872391
1	43864049	6350.90661348	1620.9392516175
1	43875119	6352.432335444	201.89007043433
1	43904312	6356.446566368	29083.253912365
1	43910267	6357.260115757	832292.02462809
1	43981784	6367.239072431	39.111808946545
1	44022606	6372.844622736	376.24534977888
1	44097370	6383.247944623	6770.6933915676
1	44344886	6417.571546265	16291.970405662
1	44363985	6420.28644577	3139.5854330872
1	44365684	6420.513112437	5729.7039084824
1	44517655	6441.453695082	17780.674334583
1	44534068	6443.690761058	802.70964485282
1	44541084	6444.658309849	8271.3832613809
1	44551280	6445.992250743	264.40756105442
1	44676408	6463.760334007	801.69217259796
1	44681008	6464.420474256	43851.225767877
1	44788088	6479.558756364	375.59335109075
1	44912716	6497.268523757	355.01858102823
1	45014151	6511.714797592	388.66815159902
1	45082112	6521.521185037	13239.855868541
1	45136612	6529.196568519	563.46371598985
1	45170080	6533.993302019	27.295453933005
1	45218317	6540.881539039	166.16755273796
1	45228308	6542.343253667	393.97132761076
1	45374957	6563.338690707	4371.3476203027
1	45397700	6566.548465582	1791.9837170898
1	45400974	6566.950469472	9593.2489781268
1	45417719	6569.381752526	1524.2278338631
1	45462526	6575.879719743	6253.2299099958
1	45601207	6595.669548616	9.2853305485904
1	45732506	6614.472806342	938.50533803177
1	45785726	6622.074916705	10886.291727851
1	45889760	6636.977584609	2862.5174560905
1	46027263	6656.663380878	15642.95669614
1	46292033	6694.719561042	161.92963273714
1	46448710	6717.245106221	2649.9712906153
1	46482268	6722.03330191	277.84631107016
1	46528971	6728.733181944	10509.287733167
1	46569000	6734.499988573	177.01192673729
1	46586651	6736.97442623	8026.6957009998
1	46656948	6747.092647659	2493.329816909
1	46668687	6748.692808515	4516.554143007
1	47005661	6797.212886638	19868.831923307
1	47026204	6800.191266677	1635.0790682206
1	47152708	6818.429694097	5553.2743562583
1	47232457	6829.783496311	2125.4604873156
1	47233996	6829.990273159	7.3446490811635
1	47243780	6831.406186788	782.83368159652
1	47479505	6865.442740588	631.41907981974
1	47516650	6870.698762095	383.38981164394
1	47553305	6875.980789561	428.58686428773
1	47658476	6891.18376622	59.356119265762
1	47720507	6900.188095765	15714.335646597
1	47882201	6923.451770534	22.092448825191
1	47971349	6936.19268865	833.33094139441
1	47997628	6940.086434513	1162.8880845767
1	48009220	6941.741103862	45486.24542547
1	48019436	6943.233931578	3400.2730013126
1	48066245	6949.903891931	39.104804626936
1	48149594	6961.887011126	61342.209091466
1	48152475	6962.346519081	61434.313866917
1	48261506	6977.923689666	1251.8488608211
1	48274771	6979.812517239	34.28453098573
1	48306494	6984.346583071	207.05034019257
1	48495732	7011.368038192	538.54605924806
1	48497466	7011.581109744	70698.686084421
1	48634071	7031.131792543	1912.7311757089
1	48666502	7035.761371274	862.45747271522
1	48772063	7050.824988606	14252.593904696
1	48791671	7053.54973831	49827.814324739
1	48828757	7058.888886437	679.0324720916
1	48835820	7059.926876582	1563.4162253478
1	48909576	7070.47229053	9482.6719296329
1	49004572	7083.905055156	1799.1560443125
1	49006745	7084.219744491	11164.626070776
1	49064163	7092.353276738	3567.9211897593
1	49322326	7129.108232322	163.1829705203
1	49522246	7157.528533558	411.26628728195
1	49585255	7166.521695275	37133.496504053
1	49730894	7187.203841995	2997.6682794497
1	49785228	7194.824602987	2771.5052232508
1	49796131	7196.366668364	13076.819173271
1	50179227	7250.842213819	3487.0559098922
1	50194780	7253.019526528	4006.33114178
1	50294595	7267.005190708	1065.877669965
1	50464149	7290.339087399	1603.6478558843
1	50512280	7296.8863241	313.56764835005
1	50537137	7300.272698711	41.211176252216
1	50758375	7330.756959885	1049.6129095687
1	50791219	7335.211799843	12560.19889188
1	50859496	7344.618080677	155.7013751387
1	50896627	7349.698602551	7466.1335277145
1	51205384	7392.229483854	135.09371176494
1	51245792	7397.761512792	55896.154685284
1	51301721	7405.535724054	5572.981694082
1	51325866	7408.849031314	323.39567251828
1	51357330	7413.121907646	4725.9332710775
1	51428339	7422.808261753	1651.9459538827
1	51431063	7423.193221291	133.66512776332
1	51439192	7424.347565242	13790.87127807
1	51605212	7447.148428123	3584.7852621671
1	51682860	7457.749678377	28760.464041045
1	51787410	7472.086397513	3633.8571983579
1	52006600	7502.099049935	237.40775203645
1	52015614	7503.397604896	3014.3790980245
1	52063336	7509.960766944	1.7888934387726
1	52066587	7510.3890026	5687.5287478407
1	52096730	7514.473583396	1194.8781836989
1	52191561	7527.400825453	448.56821184161
1	52318190	7544.58724872	1063.4725076609
1	52326116	7545.662746355	326350.59400367
1	52370645	7551.794906351	4712.7244619393
1	52389245	7554.409910306	230.84226796604
1	52426695	7559.423476271	621.91029754329
1	52535233	7574.16282633	3549.2695624388
1	52833747	7614.76909101	500.57683583656
1	52842119	7615.911959762	25278.311470661
1	52979895	7634.601775814	1226.0159575299
1	53091400	7649.71819744	1406.5843310639
1	53226053	7667.918953152	13647.259305824
1	53316042	7680.161779133	3317.0468574893
1	53578189	7715.644958058	106.68978299009
1	53818337	7748.326561457	1957.7372738256
1	53880740	7756.717172912	142.51067686743
1	53918074	7761.712535058	765.01909301604
1	53981132	7770.370501858	13895.416410975
1	54034378	7777.542387967	7755.566805234
1	54073265	7782.741299084	3306.4884941851
1	54133984	7790.985138886	3652.4308188354
1	54198639	7799.767858263	27454.128583512
1	54239045	7805.229674902	359.64722183539
1	54409475	7828.483939029	656.90687361594
1	54416211	7829.40528095	1236.3042365511
1	54473844	7837.229543885	67.475479847192
1	54543780	7846.689507145	10775.215546669
1	54588955	7852.910634764	698.46138004097
1	54708519	7869.214819938	17486.231139215
1	54949244	7901.861508038	252.65878638325
1	55007533	7909.736848432	823.26306258515
1	55190470	7934.718962234	2792.5140034726
1	55200552	7936.107190576	305.9787485778
1	55245939	7942.168592909	23906.302009684
1	55258781	7943.951077378	507.37281026093
1	55280639	7946.887893286	7397.3804602566
1	55293965	7948.675146808	7482.3739228271
1	55363394	7958.107229406	56.408039521803
1	55565107	7985.374853096	22519.25434779
1	55636837	7995.08657288	3375.7443989536
1	55724428	8006.872107022	2827.2429084358
1	55761834	8011.934154354	1566.3571773179
1	55893959	8029.766119729	2095.0386906515
1	55901899	8030.791474943	1394.0483609597
1	55925591	8034.023615316	552.33005052712
1	55979590	8041.444659077	912.52623456621
1	56084903	8055.593972815	1185.9729965398
1	56103161	8058.057156974	15453.165369006
1	56334462	8089.16164053	2099.222654391
1	56400843	8098.204064401	1309.7273199288
1	56401227	8098.248382374	20511.151687414
1	56439316	8103.352847151	7496.9896465874
1	56531163	8115.69973921	26652.522616389
1	56532854	8115.944064398	1130.9176562959
1	56540941	8117.012400438	1226.6204919288
1	56573340	8121.40854963	241.38316611877
1	56609364	8126.221290641	24.296174687196
1	56695963	8137.805427578	361.669180359
1	56746423	8144.640035879	1982.9189846078
1	56779197	8149.042031021	47555.63183888
1	56816283	8153.995734861	8471.5938319903
1	56895687	8164.726427753	7032.83679205