version 2
run HStreamingChurn-0-20140401-15:21:41-5840
attr configname HStreamingChurn
attr datetime 20140401-15:21:41
attr experiment HStreamingChurn
attr inifile htopology.ini
attr iterationvars ""
attr iterationvars2 $repetition=0
attr measurement ""
attr network oversim.underlay.simpleunderlay.SimpleUnderlayNetwork
attr processid 5840
attr repetition 0
attr replication #0
attr resultdir results
attr runnumber 0
attr seedset 0

vector 1  SimpleUnderlayNetwork.globalObserver.globalStatistics  "ParetoChurn: Session Time"  ETV
vector 2  SimpleUnderlayNetwork.globalObserver.globalStatistics  "ParetoChurn: Time between creates"  ETV
vector 3  SimpleUnderlayNetwork.globalObserver.globalStatistics  "GlobalNodeList: Number of nodes"  ETV
vector 4  SimpleUnderlayNetwork.globalObserver.globalStatistics  "ParetoChurn: Time between deletes"  ETV
1	60381	144.074201019	4049.3225882539
1	314342	570.666384515	13409.189214422
1	334122	604.889275726	61.907854005359
1	344672	622.796629741	17250.020190509
1	408034	730.528348663	6831.3114360377
1	438903	783.913080109	494.21034680042
1	553223	982.671835603	1980.5944930496
1	621780	1099.54006824	602.64359752637
1	675348	1190.452510686	3602.1912972883
1	760814	1341.296647645	5586.1685705549
1	777729	1372.316906108	2113.7947921952
1	823139	1455.875352467	20807.153080188
1	865230	1532.924064235	64.997414701974
1	934217	1658.514508405	370.00864688889
1	951242	1689.69206605	7188.5093395891
1	951817	1690.632583426	3234.6914503718
1	963480	1711.533460826	3862.9656653934
1	1137503	2021.747200361	5602.3989782111
1	1141261	2028.37796952	19154.777488927
1	1292236	2295.801282117	3180.6482901222
1	1346530	2391.056628117	25445.367341895
1	1391096	2468.508995681	6.0637786800093
1	1455397	2579.843779034	2201.51516898
1	1488296	2636.645023918	2375.155432725
1	1570743	2778.084769271	73.454265821442
1	1608047	2841.326132797	38.438919951126
1	1818214	3200.545541966	5776.2941800776
1	1994066	3501.95892779	72.763844911545
1	1997317	3507.54727644	100.18582342095
1	2127242	3731.032168218	17557.176031257
1	2160831	3788.496081173	39098.211363025
1	2217605	3884.667823433	3357.5918702929
1	2255244	3947.587769915	2811.57314089
1	2259146	3954.118222555	217.63506652069
1	2321070	4055.713443936	51762.891663976
1	2411697	4203.42957432	5167.270314517
1	2673579	4636.058422118	1591.4008127329
1	2743257	4750.128587266	17638.461992237
1	2777791	4806.745477875	190.28854314025
1	2872165	4962.889503349	9823.9340944387
1	2910434	5025.583789521	1159.3671959995
1	2920573	5042.057519814	1723.2044443941
1	3032514	5224.254287945	1169.2298367765
1	3099536	5332.515210089	7262.2591250103
1	3308524	5672.096971232	53275.915154384
1	3376978	5781.962619123	8266.5046568918
1	3461356	5910.034326144	7116.1109661431
1	3461864	5910.84370876	1233.2026505286
1	3719141	6300.128047075	3290.0568871846
1	3879760	6544.206681407	47306.653128966
1	3917294	6600.891394332	11605.615111185
1	4020744	6757.022078506	263.56036932552
1	4126025	6918.806726143	11467.596825274
1	4159730	6971.200579794	1353.3017997893
1	4209484	7048.762181552	1603.5940872935
1	4246595	7106.233303493	4760.9067856547
1	4259675	7126.320179271	9542.2902520993
1	4260734	7127.903343085	2038.3694401277
1	4357217	7273.149780051	2057.7870597507
2	60381	144.074201019	45.269925976
2	314342	570.666384515	426.592183496
2	334122	604.889275726	34.222891211
2	344672	622.796629741	17.907354015
2	408034	730.528348663	107.731718922
2	438903	783.913080109	53.384731446
2	553223	982.671835603	198.758755494
2	621780	1099.54006824	116.868232637
2	675348	1190.452510686	90.912442446
2	760814	1341.296647645	150.844136959
2	777729	1372.316906108	31.020258463
2	823139	1455.875352467	83.558446359
2	865230	1532.924064235	77.048711768
2	934217	1658.514508405	125.59044417
2	951242	1689.69206605	31.177557645
2	951817	1690.632583426	0.940517376
2	963480	1711.533460826	20.9008774
2	1137503	2021.747200361	310.213739535
2	1141261	2028.37796952	6.630769159
2	1292236	2295.801282117	267.423312597
2	1346530	2391.056628117	95.255346
2	1391096	2468.508995681	77.452367564
2	1455397	2579.843779034	111.334783353
2	1488296	2636.645023918	56.801244884
2	1570743	2778.084769271	141.439745353
2	1608047	2841.326132797	63.241363526
2	1818214	3200.545541966	359.219409169
2	1994066	3501.95892779	301.413385824
2	1997317	3507.54727644	5.58834865
2	2127242	3731.032168218	223.484891778
2	2160831	3788.496081173	57.463912955
2	2217605	3884.667823433	96.17174226
2	2255244	3947.587769915	62.919946482
2	2259146	3954.118222555	6.53045264
2	2321070	4055.713443936	101.595221381
2	2411697	4203.42957432	147.716130384
2	2673579	4636.058422118	432.628847798
2	2743257	4750.128587266	114.070165148
2	2777791	4806.745477875	56.616890609
2	2872165	4962.889503349	156.144025474
2	2910434	5025.583789521	62.694286172
2	2920573	5042.057519814	16.473730293
2	3032514	5224.254287945	182.196768131
2	3099536	5332.515210089	108.260922144
2	3308524	5672.096971232	339.581761143
2	3376978	5781.962619123	109.865647891
2	3461356	5910.034326144	128.071707021
2	3461864	5910.84370876	0.809382616
2	3719141	6300.128047075	389.284338315
2	3879760	6544.206681407	244.078634332
2	3917294	6600.891394332	56.684712925
2	4020744	6757.022078506	156.130684174
2	4126025	6918.806726143	161.784647637
2	4159730	6971.200579794	52.393853651
2	4209484	7048.762181552	77.561601758
2	4246595	7106.233303493	57.471121941
2	4259675	7126.320179271	20.086875778
2	4260734	7127.903343085	1.583163814
2	4357217	7273.149780051	145.246436966
3	64194	150	102
3	95292	200	102
3	126464	250	102
3	156676	300	100
3	186081	350	99
3	215576	400	99
3	244891	450	97
3	273615	500	97
3	302411	550	96
3	331306	600	97
3	360823	650	99
3	390231	700	98
3	419606	750	98
3	448149	800	98
3	476936	850	98
3	505704	900	98
3	534541	950	98
3	563365	1000	98
3	592737	1050	98
3	622057	1100	99
3	651463	1150	98
3	680969	1200	99
3	710263	1250	97
3	738719	1300	94
3	765585	1350	94
3	792714	1400	95
3	819973	1450	94
3	847282	1500	94
3	874701	1550	94
3	902203	1600	93
3	929485	1650	93
3	957036	1700	95
3	985138	1750	95
3	1013354	1800	95
3	1041463	1850	95
3	1069520	1900	94
3	1097378	1950	94
3	1125285	2000	94
3	1153476	2050	95
3	1181893	2100	95
3	1210240	2150	95
3	1238429	2200	94
3	1266443	2250	94
3	1294687	2300	95
3	1323150	2350	95
3	1351689	2400	96
3	1380414	2450	96
3	1409314	2500	96
3	1438139	2550	96
3	1467062	2600	96
3	1496067	2650	96
3	1525236	2700	95
3	1554403	2750	95
3	1583650	2800	96
3	1613249	2850	97
3	1642683	2900	95
3	1672079	2950	95
3	1701318	3000	94
3	1730426	3050	94
3	1759522	3100	94
3	1788687	3150	94
3	1817845	3200	94
3	1847330	3250	95
3	1876813	3300	95
3	1906065	3350	93
3	1935111	3400	93
3	1964147	3450	92
3	1992927	3500	91
3	2022222	3550	93
3	2051396	3600	91
3	2080267	3650	90
3	2109194	3700	90
3	2138230	3750	91
3	2167620	3800	92
3	2197169	3850	92
3	2226790	3900	93
3	2256686	3950	94
3	2287125	4000	95
3	2317648	4050	95
3	2348440	4100	96
3	2379261	4150	96
3	2409570	4200	92
3	2439875	4250	93
3	2470128	4300	93
3	2500426	4350	93
3	2530778	4400	93
3	2560912	4450	91
3	2591097	4500	91
3	2621386	4550	91
3	2651594	4600	91
3	2682034	4650	92
3	2712690	4700	92
3	2743161	4750	92
3	2773804	4800	90
3	2804018	4850	91
3	2834285	4900	91
3	2864467	4950	90
3	2895027	5000	90
3	2925446	5050	91
3	2956357	5100	91
3	2986995	5150	90
3	3017614	5200	90
3	3048511	5250	91
3	3079463	5300	91
3	3110376	5350	92
3	3141330	5400	92
3	3172248	5450	92
3	3203105	5500	91
3	3233893	5550	91
3	3264438	5600	90
3	3295003	5650	90
3	3325744	5700	91
3	3356559	5750	91
3	3388982	5800	90
3	3421892	5850	90
3	3454620	5900	90
3	3487815	5950	92
3	3520928	6000	92
3	3554066	6050	92
3	3587218	6100	92
3	3620325	6150	92
3	3653428	6200	91
3	3686301	6250	90
3	3719018	6300	89
3	3752032	6350	90
3	3785050	6400	89
3	3817831	6450	89
3	3850654	6500	89
3	3883588	6550	90
3	3916684	6600	90
3	3949831	6650	91
3	3982943	6700	91
3	4016037	6750	91
3	4049147	6800	89
3	4081515	6850	89
3	4113850	6900	89
3	4146101	6950	87
3	4178156	7000	87
3	4210278	7050	87
3	4242588	7100	87
3	4275503	7150	89
3	4308736	7200	89
3	4341902	7250	88
4	127880	252.340131552	252.340131552
4	134161	262.294315032	9.95418348
4	150329	289.171277136	26.876962104
4	228337	421.89176657	132.720489434
4	234695	432.70296378	10.81119721
4	288705	525.907154218	93.204190438
4	361895	651.797129731	125.889975513
4	403879	723.432101989	71.634972258
4	413374	739.547100444	16.114998455
4	553826	983.700897653	244.153797209
4	621281	1098.708976032	115.008078379
4	683621	1204.554411418	105.845435386
4	692994	1220.396201565	15.841790147
4	702469	1236.596721791	16.200520226
4	717736	1263.123426909	26.526705118
4	726242	1277.992371914	14.868945005
4	735705	1294.38361913	16.391247216
4	797442	1408.51362685	114.13000772
4	817709	1445.716549384	37.202922534
4	844784	1495.23889125	49.522341866
4	892699	1582.921478936	87.682587686
4	926560	1644.709259539	61.787780603
4	949867	1687.183665766	42.474406227
4	1052951	1870.530541176	183.34687541
4	1132870	2013.523155293	142.992614117
4	1209773	2149.183587883	135.66043259
4	1391104	2468.508995681	319.325407798
4	1455796	2580.408567577	111.899571896
4	1480415	2623.111156378	42.702588801
4	1511373	2676.324181042	53.213024664
4	1605234	2836.539035092	160.21485405
4	1621944	2864.765052748	28.226017656
4	1671120	2948.266328652	83.501275904
4	1884655	3313.278785485	365.012456833
4	1887856	3318.724648342	5.445862857
4	1954446	3433.174920393	114.450272051
4	1976334	3471.111698303	37.93677791
4	2019763	3545.762355674	74.650657371
4	2027868	3559.722772701	13.960417027
4	2047102	3592.73309986	33.010327159
4	2373531	4140.780256408	548.047156548
4	2383452	4156.753289075	15.973032667
4	2392385	4171.49018066	14.736891585
4	2396559	4178.396789272	6.906608612
4	2522633	4386.66203551	208.265246238
4	2539439	4414.381760693	27.719725183
4	2753372	4766.358948014	351.977187321
4	2760276	4777.643807974	11.28485996
4	2760862	4778.607860599	0.964052625
4	2840538	4910.324033797	131.716173198
4	2883933	4982.034021015	71.709987218
4	2893060	4996.800456643	14.766435628
4	2955065	5097.946262939	101.145806296
4	3179396	5461.449572239	363.5033093
4	3239702	5559.499126219	98.04955398
4	3348852	5737.3642148	177.865088581
4	3377347	5782.403273238	45.039058438
4	3633555	6169.95098552	387.547712282
4	3661691	6212.45923485	42.50824933
4	3689821	6255.361969644	42.902734794
4	3770916	6378.484124721	123.122155077
4	4012232	6744.160910804	365.676786083
4	4016244	6750.261964208	6.101053404
4	4038951	6784.402796644	34.140832436
4	4104655	6885.793425732	101.390629088
4	4111713	6896.693225497	10.899799765
4	4122023	6912.465218199	15.771992702
4	4148096	6953.028638751	40.563420552
4	4181808	7005.582447831	52.55380908
4	4261613	7129.046359288	123.463911457
4	4326829	7227.259693725	98.213334437
