version 2
run HStreamingChurn-0-20140417-13:21:26-1056
attr configname HStreamingChurn
attr datetime 20140417-13:21:26
attr experiment HStreamingChurn
attr inifile htopology.ini
attr iterationvars ""
attr iterationvars2 $repetition=0
attr measurement ""
attr network oversim.underlay.simpleunderlay.SimpleUnderlayNetwork
attr processid 1056
attr repetition 0
attr replication #0
attr resultdir results
attr runnumber 0
attr seedset 0

vector 1  SimpleUnderlayNetwork.globalObserver.globalStatistics  "ParetoChurn: Session Time"  ETV
vector 2  SimpleUnderlayNetwork.globalObserver.globalStatistics  "ParetoChurn: Time between creates"  ETV
vector 3  SimpleUnderlayNetwork.globalObserver.globalStatistics  "ParetoChurn: Time between deletes"  ETV
vector 4  SimpleUnderlayNetwork.globalObserver.globalStatistics  "GlobalNodeList: Number of nodes"  ETV
1	355032	300.906024105	65.959341503389
1	379411	311.416356932	3668.0986091081
1	486885	356.518847548	1905.5762512898
1	548234	382.375016015	2959.955717266
1	852572	509.808255808	1487.3750037378
1	857996	511.956480151	6611.3573231491
1	888775	524.78131524	211.32185262536
1	899693	529.313580484	3235.8156931152
1	925831	539.978214344	1310.0571136549
1	926250	540.161981263	16886.342080697
1	959393	554.029222249	2068.8548270149
1	1153662	633.072463746	33.846175589815
1	1282905	685.78772561	6396.3930890176
1	1429385	745.212143436	330.6347671194
1	1468725	760.982117696	1916.7472041152
1	1470918	761.915153831	722.85280585573
1	1515149	779.658849789	7765.0444011919
1	1549812	793.67325321	1874.505879473
1	1551996	794.614880593	53202.422440203
1	1553272	795.091183688	3549.1123369795
1	1634802	827.432602181	872.62241838813
1	1746767	871.791538734	2476.9380932366
1	1789018	888.450661799	1256.2132511481
1	1948642	951.242253225	14.478127086434
1	2070583	999.16381947	81503.783240993
1	2230913	1061.83297893	1884.8215103969
1	2323293	1097.947910196	422.6754910537
1	2434234	1140.867869394	329176.44170022
1	2453996	1148.573339231	8707.1532707916
1	2494342	1164.409271146	8214.3629781024
1	2525771	1176.50325049	39443.667093979
1	2582570	1198.087018813	5288.4109267873
1	2590449	1201.12786798	30058.756081574
1	2603444	1206.033579843	1692.3350661543
1	2659315	1227.704164125	558.81145279483
1	2742087	1258.832649051	6.8795966529476
1	2823497	1289.885949271	8377.789070169
1	2838834	1295.679947613	30978.145322241
1	2925432	1327.927995385	239.34492941418
1	3003070	1357.396956316	106.32520817362
1	3229429	1441.939782965	20871.367725994
1	3285633	1463.06320681	911.87420260112
1	3319535	1475.703739311	178.02195622227
1	3863962	1677.922561452	198.16535061829
1	3906353	1693.493593792	4375.835963856
1	3921320	1699.082369891	6972.9797698955
1	3924184	1700.18095418	3771.6661745036
1	4062668	1750.916218516	915.93249241226
1	4361489	1860.538919801	1100.6520821377
1	4366184	1862.259206662	80831.214185478
1	4465135	1898.354140773	2002.1740047026
1	4557289	1931.558850632	45656.609646155
1	4583786	1941.186737498	1695.983780259
1	4775115	2010.807670088	17707.429112223
1	4874099	2046.661264725	19852.855314613
1	5137833	2142.230361732	653.29206039732
1	5219401	2171.674796801	9093.1849436665
1	5232456	2176.143965829	367.17848598876
1	5255805	2184.657324237	1095.2947892765
1	5332935	2212.655215939	80.54840705525
1	5493363	2270.106912	755.4380564479
1	5576967	2299.799542682	17211.061903082
1	5599101	2307.754996523	88.211250011507
1	5727355	2353.478634045	63877.18617028
1	5819581	2386.294288499	1377.1862941014
1	5899106	2414.510350826	9250.0180824966
1	5919511	2421.474133635	126.60690049456
1	5984147	2444.485599596	5.5681253788814
1	6190723	2517.09791446	2503.4262432848
1	6252310	2538.752048979	2.613791377693
1	6371437	2580.453483299	931.89065382618
1	6470539	2615.036901305	395.17382131416
1	6536099	2637.863844795	8684.6828587332
1	6610436	2663.568111085	693.9480305001
1	6658726	2680.544967261	684.93341342994
1	7008613	2801.419441856	1752.3083080592
1	7009146	2801.611162585	2216.0993075637
1	7159662	2853.620991543	140.94385815934
1	7166180	2855.90190791	18562.806525087
1	7230656	2878.194931241	41739.291302836
1	7345558	2917.727568749	173.89362623781
1	7367094	2925.026855749	2365.1314022239
1	7392309	2933.82628012	1261.9570555982
1	7483193	2964.790742615	806.26119930485
1	7515341	2975.755642667	5645.0297733721
1	7635517	3016.95628212	33.982351447554
1	7903671	3108.571850652	297.29260896457
1	7945870	3122.956144948	395.1904554294
1	7975722	3133.138757284	4097.0741222943
1	8163330	3196.875511787	3762.7846154387
1	8237994	3221.947962648	2926.9714176601
1	8341816	3257.057714959	13786.772513823
1	8390224	3274.451438144	2734.3162950277
1	8495892	3313.07460488	2960.5350596505
1	8497547	3313.681263137	10883.376013203
1	8526687	3324.222057953	310.95951168828
1	8562636	3337.056259367	2471.1859780209
1	8641225	3365.501348933	332.73337227742
1	8690463	3383.180365086	7393.5434190245
1	8911646	3463.965040248	47873.082850775
1	9162932	3559.304941963	2478.735524438
1	9188811	3569.667933965	2657.7979394554
1	9205483	3576.351448738	34.594070812517
1	9264084	3600.106772704	50777.343275242
1	9328142	3625.983815785	13510.646680608
1	9387954	3649.959111153	202.22902584506
1	9393294	3652.094057767	2378.0749191905
1	9394726	3652.599102246	15664.357973142
1	9440877	3671.139335514	83.177698315799
1	9461382	3679.312251297	7939.0361357853
1	9701678	3775.020013846	2927.0389318041
1	9777251	3805.347288299	1070.0475115211
1	9788555	3809.817394628	1523.254077349
1	9855111	3836.082526846	138019.82035785
1	9867975	3841.197441741	87.291628923585
1	9958585	3876.923138748	306.21783052262
1	10039396	3908.8849603	2613.6834300741
1	10116148	3938.896384525	77.035477976426
1	10120939	3940.799861893	346.32097242038
1	10133872	3945.814672387	740.76647446668
1	10262756	3996.100384297	2054.0888461604
1	10292454	4007.576054958	164.45980601709
1	10328313	4021.489532403	333.63507427461
1	10349402	4029.597126304	1584.941542405
1	10387206	4043.83025219	21028.404184744
1	10434142	4062.070545822	4356.3776177146
1	10528622	4098.823430144	1818.3822199709
1	10648736	4145.214631997	2297.8824436985
1	10691915	4161.921266281	5607.4419484275
1	10707803	4168.045049528	79595.535909717
1	10729768	4176.455428484	969.67734485274
1	10752745	4185.236171164	88.247919671803
1	10765620	4190.123612534	14.4844053826
1	10858761	4225.615391424	3038.2723255896
1	10873965	4231.46225108	770.71871374347
1	10927421	4251.522818327	3357.3586961578
1	11140977	4332.246085762	174.32364994047
1	11224844	4363.705491335	1007.5579658294
1	11245431	4371.350474506	19686.69472491
1	11414840	4434.848546793	8076.2075327461
1	11432050	4441.289749945	12805.341336334
1	11450047	4448.003847949	12347.996009642
1	11487530	4462.204661354	595.26714358603
1	11577071	4495.271295981	35755.984281075
1	12089879	4685.909811943	75.424365749329
1	12135783	4703.047016585	311071.10409284
1	12185509	4721.379995513	4205.639914562
1	12282514	4757.278652819	215.72562979002
1	12290350	4760.184631415	348.89053727513
1	12303690	4765.03497313	82.292089347791
1	12423050	4808.845762489	12197.902998744
1	12482256	4830.378249944	114.21372399395
1	12599521	4873.357446171	1903.673682955
1	12696314	4908.768959051	2606.1016080462
1	12750457	4928.678557261	23543.035103197
1	12828733	4957.277123761	105.55051132573
1	12871799	4973.048199344	456.84242320667
1	12885538	4977.995475738	139.48333067736
1	12948981	5001.284299389	539.19318795426
1	12969748	5008.739038596	20591.90842895
1	13053728	5039.061363226	510.22786775878
1	13158332	5077.035594059	2824.1457541848
1	13348350	5145.807642683	229.49831247554
1	13468370	5189.169927412	135.17028615701
1	13474742	5191.370049936	379.4203004156
1	13551994	5219.005109768	1199.8974415257
1	13684946	5266.687633436	10956.509937354
1	13841459	5322.728625523	2285.8725046371
1	13854131	5327.237710212	4075.9566301281
1	14009593	5382.939462463	5.1891669079884
1	14080784	5408.294036978	1110.8506445678
1	14269478	5475.728606378	188.47193837324
1	14526427	5567.279313158	1342.2903697699
1	14587027	5588.728976735	6069.801565137
1	14602449	5594.212634298	43.272244644409
1	14634798	5605.79285878	10859.59174829
1	14659022	5614.349577576	971.44741652308
1	14767763	5652.495699382	180.40256397067
1	14904953	5700.882879256	1982.1599063238
1	15021868	5741.822940265	1722.9725565247
1	15172896	5794.59026924	27657.930226623
1	15188288	5799.970315333	688.39181858616
1	15318981	5845.915771801	76459.266451044
1	15337668	5852.866804313	2298.657239349
1	15476041	5903.727305297	16.322314458916
1	15510508	5916.493275477	10863.589803043
1	15784655	6017.290310965	129.25248101466
1	15915031	6065.422812613	2342.3300742655
1	15959827	6081.932784684	588.2863442883
1	15996156	6095.336510605	352.7563381727
1	16019741	6103.980339629	16205.47652202
1	16115677	6138.936287549	1220.1315764926
1	16181072	6162.95861358	1894.6415423972
1	16350988	6224.750173888	1392.68425421
1	16414474	6247.763204864	10285.088919918
1	16459884	6264.280575271	9967.0360015825
1	16467917	6267.220522464	1456.926908303
1	16586625	6310.313536748	19112.272373339
1	16690395	6347.991210823	6.828623376303
1	16693668	6349.045186321	3215.6497143777
1	16715616	6356.935538297	1012.6314705473
1	16852729	6406.488660829	164.74546082155
1	17204022	6532.629248447	37755.39387267
1	17235338	6543.922778685	945.88199197415
1	17397704	6602.182093462	2589.7285719813
1	17476698	6630.572908518	710.22123684684
1	17563966	6661.844213049	1693.0662571532
1	17729800	6721.265468929	22654.008058731
1	17874893	6773.249640341	190.79648517872
1	17930838	6793.269560116	2004.6648823446
1	18026576	6827.576200222	50.751911199505
1	18131887	6865.710254424	4294.8922426203
1	18339127	6940.721354951	9999.6588373767
1	18530003	7009.400852346	533.96910099653
1	18541325	7013.45979206	805.6297766576
1	18655198	7054.292405649	5470.9038035035
1	18711054	7074.539432487	1598.4188798335
1	18822361	7114.421277159	268.46646873195
1	18874228	7133.188928281	6180.7560725982
1	19223712	7258.04383234	667.09666221755
1	19381874	7314.530219384	1606.7192429654
1	19562373	7378.715135212	10950.143450169
1	19613764	7397.032435819	26924.560356799
1	19716062	7433.225899972	25549.610155432
1	19761866	7449.237501522	1491.722549803
1	19765169	7450.456848132	2915.7144369973
1	19783827	7457.098450588	3429.3775452773
1	19850177	7480.353704679	4406.2849566842
2	355032	300.906024105	1.558414754
2	379411	311.416356932	10.510332827
2	486885	356.518847548	45.102490616
2	548234	382.375016015	25.856168467
2	852572	509.808255808	127.433239793
2	857996	511.956480151	2.148224343
2	888775	524.78131524	12.824835089
2	899693	529.313580484	4.532265244
2	925831	539.978214344	10.66463386
2	926250	540.161981263	0.183766919
2	959393	554.029222249	13.867240986
2	1153662	633.072463746	79.043241497
2	1282905	685.78772561	52.715261864
2	1429385	745.212143436	59.424417826
2	1468725	760.982117696	15.76997426
2	1470918	761.915153831	0.933036135
2	1515149	779.658849789	17.743695958
2	1549812	793.67325321	14.014403421
2	1551996	794.614880593	0.941627383
2	1553272	795.091183688	0.476303095
2	1634802	827.432602181	32.341418493
2	1746767	871.791538734	44.358936553
2	1789018	888.450661799	16.659123065
2	1948642	951.242253225	62.791591426
2	2070583	999.16381947	47.921566245
2	2230913	1061.83297893	62.66915946
2	2323293	1097.947910196	36.114931266
2	2434234	1140.867869394	42.919959198
2	2453996	1148.573339231	7.705469837
2	2494342	1164.409271146	15.835931915
2	2525771	1176.50325049	12.093979344
2	2582570	1198.087018813	21.583768323
2	2590449	1201.12786798	3.040849167
2	2603444	1206.033579843	4.905711863
2	2659315	1227.704164125	21.670584282
2	2742087	1258.832649051	31.128484926
2	2823497	1289.885949271	31.05330022
2	2838834	1295.679947613	5.793998342
2	2925432	1327.927995385	32.248047772
2	3003070	1357.396956316	29.468960931
2	3229429	1441.939782965	84.542826649
2	3285633	1463.06320681	21.123423845
2	3319535	1475.703739311	12.640532501
2	3863962	1677.922561452	202.218822141
2	3906353	1693.493593792	15.57103234
2	3921320	1699.082369891	5.588776099
2	3924184	1700.18095418	1.098584289
2	4062668	1750.916218516	50.735264336
2	4361489	1860.538919801	109.622701285
2	4366184	1862.259206662	1.720286861
2	4465135	1898.354140773	36.094934111
2	4557289	1931.558850632	33.204709859
2	4583786	1941.186737498	9.627886866
2	4775115	2010.807670088	69.62093259
2	4874099	2046.661264725	35.853594637
2	5137833	2142.230361732	95.569097007
2	5219401	2171.674796801	29.444435069
2	5232456	2176.143965829	4.469169028
2	5255805	2184.657324237	8.513358408
2	5332935	2212.655215939	27.997891702
2	5493363	2270.106912	57.451696061
2	5576967	2299.799542682	29.692630682
2	5599101	2307.754996523	7.955453841
2	5727355	2353.478634045	45.723637522
2	5819581	2386.294288499	32.815654454
2	5899106	2414.510350826	28.216062327
2	5919511	2421.474133635	6.963782809
2	5984147	2444.485599596	23.011465961
2	6190723	2517.09791446	72.612314864
2	6252310	2538.752048979	21.654134519
2	6371437	2580.453483299	41.70143432
2	6470539	2615.036901305	34.583418006
2	6536099	2637.863844795	22.82694349
2	6610436	2663.568111085	25.70426629
2	6658726	2680.544967261	16.976856176
2	7008613	2801.419441856	120.874474595
2	7009146	2801.611162585	0.191720729
2	7159662	2853.620991543	52.009828958
2	7166180	2855.90190791	2.280916367
2	7230656	2878.194931241	22.293023331
2	7345558	2917.727568749	39.532637508
2	7367094	2925.026855749	7.299287
2	7392309	2933.82628012	8.799424371
2	7483193	2964.790742615	30.964462495
2	7515341	2975.755642667	10.964900052
2	7635517	3016.95628212	41.200639453
2	7903671	3108.571850652	91.615568532
2	7945870	3122.956144948	14.384294296
2	7975722	3133.138757284	10.182612336
2	8163330	3196.875511787	63.736754503
2	8237994	3221.947962648	25.072450861
2	8341816	3257.057714959	35.109752311
2	8390224	3274.451438144	17.393723185
2	8495892	3313.07460488	38.623166736
2	8497547	3313.681263137	0.606658257
2	8526687	3324.222057953	10.540794816
2	8562636	3337.056259367	12.834201414
2	8641225	3365.501348933	28.445089566
2	8690463	3383.180365086	17.679016153
2	8911646	3463.965040248	80.784675162
2	9162932	3559.304941963	95.339901715
2	9188811	3569.667933965	10.362992002
2	9205483	3576.351448738	6.683514773
2	9264084	3600.106772704	23.755323966
2	9328142	3625.983815785	25.877043081
2	9387954	3649.959111153	23.975295368
2	9393294	3652.094057767	2.134946614
2	9394726	3652.599102246	0.505044479
2	9440877	3671.139335514	18.540233268
2	9461382	3679.312251297	8.172915783
2	9701678	3775.020013846	95.707762549
2	9777251	3805.347288299	30.327274453
2	9788555	3809.817394628	4.470106329
2	9855111	3836.082526846	26.265132218
2	9867975	3841.197441741	5.114914895
2	9958585	3876.923138748	35.725697007
2	10039396	3908.8849603	31.961821552
2	10116148	3938.896384525	30.011424225
2	10120939	3940.799861893	1.903477368
2	10133872	3945.814672387	5.014810494
2	10262756	3996.100384297	50.28571191
2	10292454	4007.576054958	11.475670661
2	10328313	4021.489532403	13.913477445
2	10349402	4029.597126304	8.107593901
2	10387206	4043.83025219	14.233125886
2	10434142	4062.070545822	18.240293632
2	10528622	4098.823430144	36.752884322
2	10648736	4145.214631997	46.391201853
2	10691915	4161.921266281	16.706634284
2	10707803	4168.045049528	6.123783247
2	10729768	4176.455428484	8.410378956
2	10752745	4185.236171164	8.78074268
2	10765620	4190.123612534	4.88744137
2	10858761	4225.615391424	35.49177889
2	10873965	4231.46225108	5.846859656
2	10927421	4251.522818327	20.060567247
2	11140977	4332.246085762	80.723267435
2	11224844	4363.705491335	31.459405573
2	11245431	4371.350474506	7.644983171
2	11414840	4434.848546793	63.498072287
2	11432050	4441.289749945	6.441203152
2	11450047	4448.003847949	6.714098004
2	11487530	4462.204661354	14.200813405
2	11577071	4495.271295981	33.066634627
2	12089879	4685.909811943	190.638515962
2	12135783	4703.047016585	17.137204642
2	12185509	4721.379995513	18.332978928
2	12282514	4757.278652819	35.898657306
2	12290350	4760.184631415	2.905978596
2	12303690	4765.03497313	4.850341715
2	12423050	4808.845762489	43.810789359
2	12482256	4830.378249944	21.532487455
2	12599521	4873.357446171	42.979196227
2	12696314	4908.768959051	35.41151288
2	12750457	4928.678557261	19.90959821
2	12828733	4957.277123761	28.5985665
2	12871799	4973.048199344	15.771075583
2	12885538	4977.995475738	4.947276394
2	12948981	5001.284299389	23.288823651
2	12969748	5008.739038596	7.454739207
2	13053728	5039.061363226	30.32232463
2	13158332	5077.035594059	37.974230833
2	13348350	5145.807642683	68.772048624
2	13468370	5189.169927412	43.362284729
2	13474742	5191.370049936	2.200122524
2	13551994	5219.005109768	27.635059832
2	13684946	5266.687633436	47.682523668
2	13841459	5322.728625523	56.040992087
2	13854131	5327.237710212	4.509084689
2	14009593	5382.939462463	55.701752251
2	14080784	5408.294036978	25.354574515
2	14269478	5475.728606378	67.4345694
2	14526427	5567.279313158	91.55070678
2	14587027	5588.728976735	21.449663577
2	14602449	5594.212634298	5.483657563
2	14634798	5605.79285878	11.580224482
2	14659022	5614.349577576	8.556718796
2	14767763	5652.495699382	38.146121806
2	14904953	5700.882879256	48.387179874
2	15021868	5741.822940265	40.940061009
2	15172896	5794.59026924	52.767328975
2	15188288	5799.970315333	5.380046093
2	15318981	5845.915771801	45.945456468
2	15337668	5852.866804313	6.951032512
2	15476041	5903.727305297	50.860500984
2	15510508	5916.493275477	12.76597018
2	15784655	6017.290310965	100.797035488
2	15915031	6065.422812613	48.132501648
2	15959827	6081.932784684	16.509972071
2	15996156	6095.336510605	13.403725921
2	16019741	6103.980339629	8.643829024
2	16115677	6138.936287549	34.95594792
2	16181072	6162.95861358	24.022326031
2	16350988	6224.750173888	61.791560308
2	16414474	6247.763204864	23.013030976
2	16459884	6264.280575271	16.517370407
2	16467917	6267.220522464	2.939947193
2	16586625	6310.313536748	43.093014284
2	16690395	6347.991210823	37.677674075
2	16693668	6349.045186321	1.053975498
2	16715616	6356.935538297	7.890351976
2	16852729	6406.488660829	49.553122532
2	17204022	6532.629248447	126.140587618
2	17235338	6543.922778685	11.293530238
2	17397704	6602.182093462	58.259314777
2	17476698	6630.572908518	28.390815056
2	17563966	6661.844213049	31.271304531
2	17729800	6721.265468929	59.42125588
2	17874893	6773.249640341	51.984171412
2	17930838	6793.269560116	20.019919775
2	18026576	6827.576200222	34.306640106
2	18131887	6865.710254424	38.134054202
2	18339127	6940.721354951	75.011100527
2	18530003	7009.400852346	68.679497395
2	18541325	7013.45979206	4.058939714
2	18655198	7054.292405649	40.832613589
2	18711054	7074.539432487	20.247026838
2	18822361	7114.421277159	39.881844672
2	18874228	7133.188928281	18.767651122
2	19223712	7258.04383234	124.854904059
2	19381874	7314.530219384	56.486387044
2	19562373	7378.715135212	64.184915828
2	19613764	7397.032435819	18.317300607
2	19716062	7433.225899972	36.193464153
2	19761866	7449.237501522	16.01160155
2	19765169	7450.456848132	1.21934661
2	19783827	7457.098450588	6.641602456
2	19850177	7480.353704679	23.255254091
3	361926	303.851342821	8.337176532
3	426754	331.290481343	27.439138522
3	456010	343.581812565	12.291331222
3	467843	348.546146074	4.964333509
3	475695	351.865365608	3.319219534
3	593845	401.404134209	49.538768601
3	637479	419.600335143	18.196200934
3	721389	454.732875487	35.132540344
3	754749	468.704518886	13.971643399
3	885827	523.592214756	54.88769587
3	983092	563.678877982	40.086663226
3	1082139	603.883007709	40.204129727
3	1092762	608.255208899	4.37220119
3	1200350	651.918639335	43.663430436
3	1224420	661.618795482	9.700156147
3	1370773	721.103167865	59.484372383
3	1736568	867.748071058	146.644903193
3	1811595	897.238412484	29.490341426
3	1860168	916.564510009	19.326097525
3	1887248	927.198730577	10.634220568
3	1948650	951.242253225	24.043522648
3	2162244	1034.969884314	83.727631089
3	2228288	1060.846910555	25.877026241
3	2385576	1122.036825291	61.189914736
3	2420413	1135.556969654	13.520144363
3	2742095	1258.832649051	123.275679397
3	2781314	1273.764213286	14.931564235
3	3046945	1373.701549504	99.937336218
3	3247984	1448.722164489	75.020614985
3	3274199	1458.687544791	9.965380302
3	3303403	1469.767959686	11.080414895
3	3352149	1487.664809088	17.896849402
3	3363586	1491.975431555	4.310622467
3	3400564	1505.623401249	13.647969694
3	3478620	1534.852191088	29.228789839
3	3525757	1552.272924799	17.420733711
3	3758529	1638.725695533	86.452770734
3	3883282	1685.055020569	46.329325036
3	3899220	1690.799892509	5.74487194
3	4083286	1758.525650976	67.725758467
3	4118046	1771.515616919	12.989965943
3	4286683	1833.272069145	61.756452226
3	4291680	1835.035327998	1.763258853
3	4363023	1861.08791207	26.052584072
3	4646971	1964.133907114	103.045995044
3	4657182	1967.781999666	3.648092552
3	4696698	1982.183259545	14.401259879
3	5103284	2129.663912947	147.480653402
3	5183558	2158.669382283	29.005469336
3	5186600	2159.852231074	1.182848791
3	5206415	2166.988164217	7.135933143
3	5280543	2193.850918675	26.862754458
3	5285357	2195.535538592	1.684619917
3	5288683	2196.737090271	1.201551679
3	5429418	2247.095098837	50.358008566
3	5516267	2278.203622994	31.108524157
3	5525517	2281.560112887	3.356489893
3	5736484	2356.575141875	75.015028988
3	5746059	2359.937409411	3.362267536
3	5802934	2380.31150241	20.374092999
3	5804680	2380.966246534	0.654744124
3	5904555	2416.302218801	35.335972267
3	5965185	2437.793686847	21.491468046
3	5984155	2444.485599596	6.691912749
3	6040663	2464.430307592	19.944707996
3	6222217	2528.322451817	63.892144225
3	6236058	2533.081034129	4.758582312
3	6252318	2538.752048979	5.67101485
3	6447126	2606.846873342	68.094824363
3	6450297	2607.884049263	1.037175921
3	6575995	2651.848710928	43.964661665
3	6579889	2653.179132683	1.330421755
3	6607867	2662.729321811	9.550189128
3	6791114	2726.043907783	63.314585972
3	6844292	2744.490885469	18.446977686
3	6850646	2746.740954904	2.250069435
3	6856207	2748.714238186	1.973283282
3	6948544	2780.522422129	31.808183943
3	6997582	2797.446113466	16.923691337
3	7115747	2838.518852561	41.072739095
3	7246003	2883.368645997	44.849793436
3	7385988	2931.654489326	48.285843329
3	7428944	2946.191001938	14.536512612
3	7485110	2965.44473486	19.253732922
3	7491231	2967.480923054	2.036188194
3	7526670	2979.564849702	12.083926648
3	7572225	2995.210722619	15.645872917
3	7616993	3010.544968447	15.334245828
3	7691407	3035.938633567	25.39366512
3	7722773	3046.703581421	10.764947854
3	7809725	3076.621194986	29.917613565
3	8309758	3246.139295109	169.518100123
3	8336218	3255.175206024	9.035910915
3	8341292	3256.922998383	1.747792359
3	8364158	3264.952113513	8.02911513
3	8506064	3316.848040638	51.895927125
3	8535412	3327.330733281	10.482692643
3	8553456	3333.72963197	6.398898689
3	8574135	3341.187753595	7.458121625
3	8577864	3342.516141585	1.32838799
3	8599907	3350.47838069	7.962239105
3	8645351	3366.92477073	16.44639004
3	8711291	3390.50312468	23.57835395
3	8712269	3390.864459616	0.361334936
3	8720009	3393.660068531	2.795608915
3	8843855	3438.911033853	45.250965322
3	8850799	3441.457979771	2.546945918
3	8901235	3460.035018013	18.577038242
3	8989872	3492.555093801	32.520075788
3	9002798	3497.344137125	4.789043324
3	9018682	3503.146600377	5.802463252
3	9055937	3516.558657369	13.412056992
3	9109770	3537.351986699	20.79332933
3	9254062	3595.94551955	58.593532851
3	9313744	3620.181569641	24.236050091
3	9318709	3622.170517756	1.988948115
3	9368844	3642.230595927	20.060078171
3	9471137	3683.23472121	41.004125283
3	9611958	3739.317033829	56.082312619
3	9620930	3742.908424982	3.591391153
3	9634939	3748.4805826	5.572157618
3	9638996	3750.129273599	1.648690999
3	9654140	3756.051941919	5.92266832
3	9772431	3803.364591928	47.312650009
3	9858010	3837.188136998	33.82354507
3	9980423	3885.528145475	48.340008477
3	10051284	3913.489070664	27.960925189
3	10181839	3964.51496604	51.025895376
3	10237456	3986.287496254	21.772530214
3	10267139	3997.747568812	11.460072558
3	10275321	4000.931862501	3.184293689
3	10283982	4004.231966833	3.300104332
3	10678982	4157.035860975	152.803894142
3	10699186	4164.673243643	7.637382668
3	10708038	4168.14096927	3.467725627
3	10741127	4180.783335718	12.642366448
3	10765628	4190.123612534	9.340276816
3	10945786	4258.484090835	68.360478301
3	10981373	4272.120834313	13.636743478
3	11132993	4329.203520667	57.082686354
3	11161819	4340.124606677	10.92108601
3	11567000	4491.569735702	151.445129025
3	11611083	4507.898137352	16.32840165
3	11693593	4538.727749915	30.829612563
3	11775417	4568.939435777	30.211685862
3	12051403	4671.581146853	102.641711076
3	12253255	4746.334177692	74.753030839
3	12486499	4831.876969185	85.542791493
3	12487689	4832.327062477	0.450093292
3	12564242	4860.39479982	28.067737343
3	12634570	4886.322613134	25.927813314
3	12753051	4929.591973937	43.269360803
3	12830810	4958.004282609	28.412308672
3	12910686	4987.180964823	29.176682214
3	12952983	5002.710470148	15.529505325
3	12960840	5005.524157744	2.813687596
3	13063280	5042.47180494	36.947647196
3	13077855	5047.827635086	5.355830146
3	13205253	5094.07516869	46.247533604
3	13228886	5102.478806415	8.403637725
3	13263703	5115.099107448	12.620301033
3	13307686	5131.132773336	16.033665888
3	13593391	5233.856781607	102.724008271
3	13708580	5275.158257972	41.301476365
3	13803736	5309.340213569	34.181955597
3	13828601	5318.071471976	8.731258407
3	13900237	5343.791706034	25.720234058
3	13935197	5356.263457164	12.47175113
3	13946405	5360.305955158	4.042497994
3	14009601	5382.939462463	22.633507305
3	14099058	5414.89062255	31.951160087
3	14207784	5453.634271285	38.743648735
3	14216694	5456.847128683	3.212857398
3	14257919	5471.444625099	14.597496416
3	14409163	5525.477487343	54.032862244
3	14433980	5534.289230984	8.811743641
3	14493846	5555.790350351	21.501119367
3	14617405	5599.538668708	43.748318357
3	14626240	5602.663553183	3.124884475
3	14682555	5622.484878942	19.821325759
3	14758280	5649.200544751	26.715665809
3	15168940	5793.242237387	144.041692636
3	15239896	5817.898263352	24.656025965
3	15251621	5821.940242354	4.041979002
3	15255760	5823.316168345	1.375925991
3	15271969	5829.007029021	5.690860676
3	15455893	5896.17391442	67.166885399
3	15471996	5902.205650114	6.031735694
3	15479675	5905.049619755	2.843969641
3	15716622	5992.310577546	87.260957791
3	15720670	5993.767733171	1.457155625
3	15774427	6013.589809494	19.822076323
3	15778785	6015.168976957	1.579167463
3	15799778	6023.040466401	7.871489444
3	15832553	6035.189230457	12.148764056
3	15885079	6054.329557647	19.14032719
3	16095299	6131.542791979	77.213234332
3	16101822	6133.919380308	2.376588329
3	16220143	6176.967044174	43.047663866
3	16317005	6212.46587342	35.498829246
3	16399677	6242.424469296	29.958595876
3	16444309	6258.60966453	16.185195234
3	16690403	6347.991210823	89.381546293
3	16845431	6403.902551293	55.91134047
3	16912764	6428.097075695	24.194524402
3	16927084	6433.092848777	4.995773082
3	17034170	6471.4979456	38.405096823
3	17039251	6473.362133919	1.864188319
3	17124891	6504.144681545	30.782547626
3	17134368	6507.568390374	3.423708829
3	17269906	6556.23412165	48.665731276
3	17310138	6570.796994099	14.562872449
3	17545278	6655.219128972	84.422134873
3	17633914	6687.05894565	31.839816678
3	17843196	6762.031129126	74.972183476
3	17984548	6812.386073108	50.354943982
3	17987122	6813.306099871	0.920026763
3	18038747	6832.082238554	18.776138683
3	18125357	6863.328111421	31.245872867
3	18211616	6894.569682927	31.241571506
3	18350204	6944.660127225	50.090444298
3	18362303	6949.046125519	4.385998294
3	18603462	7035.844019422	86.797893903
3	18690685	7067.180814627	31.336795205
3	18713008	7075.185060734	8.004246107
3	18805194	7108.3138033	33.128742566
3	19103749	7215.212879578	106.899076278
3	19197997	7248.887717013	33.674837435
3	19413906	7325.794145364	76.906428351
3	19464983	7344.067864041	18.273718677
3	19494482	7354.567008844	10.499144803
3	19531720	7367.88774589	13.320737046
3	19763328	7449.795496789	81.907750899
3	19834346	7474.804770659	25.00927387
3	19905968	7499.870567097	25.065796438
4	471374	350	299
4	590422	400	298
4	710016	450	296
4	829232	500	294
4	949442	550	299
4	1072837	600	299
4	1195352	650	298
4	1318476	700	297
4	1441432	750	297
4	1565824	800	303
4	1691951	850	304
4	1818707	900	305
4	1945289	950	302
4	2072667	1000	303
4	2200357	1050	302
4	2328459	1100	303
4	2457681	1150	304
4	2587461	1200	306
4	2718528	1250	309
4	2850541	1300	310
4	2983248	1350	311
4	3116914	1400	311
4	3251328	1450	312
4	3385182	1500	311
4	3519879	1550	307
4	3654027	1600	306
4	3788284	1650	306
4	3923790	1700	308
4	4060149	1750	307
4	4196196	1800	306
4	4332895	1850	305
4	4469631	1900	306
4	4607687	1950	308
4	4745314	2000	305
4	4883518	2050	307
4	5021270	2100	307
4	5159397	2150	307
4	5298034	2200	307
4	5437390	2250	305
4	5577629	2300	304
4	5717641	2350	305
4	5858473	2400	303
4	5999857	2450	305
4	6141915	2500	302
4	6284809	2550	302
4	6427487	2600	302
4	6570695	2650	302
4	6715433	2700	301
4	6859901	2750	300
4	7004635	2800	296
4	7149446	2850	297
4	7293947	2900	298
4	7440100	2950	300
4	7586185	3000	298
4	7732628	3050	297
4	7878626	3100	294
4	8025517	3150	297
4	8172707	3200	298
4	8321166	3250	299
4	8459602	3300	297
4	8598624	3350	298
4	8737858	3400	296
4	8874183	3450	293
4	9010054	3500	291
4	9140373	3550	287
4	9263873	3600	289
4	9388062	3650	289
4	9513534	3700	291
4	9638687	3750	291
4	9764037	3800	287
4	9890179	3850	290
4	10017208	3900	290
4	10144666	3950	292
4	10272974	4000	292
4	10402861	4050	292
4	10531802	4100	294
4	10660793	4150	295
4	10791435	4200	296
4	10923433	4250	297
4	11055899	4300	296
4	11188383	4350	296
4	11321241	4400	297
4	11455140	4450	300
4	11589775	4500	302
4	11724118	4550	300
4	11858588	4600	298
4	11993420	4650	298
4	12127406	4700	298
4	12263335	4750	300
4	12399270	4800	302
4	12535653	4850	302
4	12672079	4900	302
4	12808523	4950	302
4	12945559	5000	304
4	13083802	5050	304
4	13221892	5100	303
4	13360015	5150	300
4	13499070	5200	302
4	13638068	5250	302
4	13778104	5300	302
4	13917820	5350	302
4	14057411	5400	299
4	14197688	5450	299
4	14337743	5500	297
4	14477673	5550	295
4	14618604	5600	297
4	14760510	5650	296
4	14902421	5700	296
4	15045410	5750	298
4	15188407	5800	300
4	15329968	5850	296
4	15465954	5900	297
4	15601599	5950	296
4	15737170	6000	296
4	15873158	6050	292
4	16008811	6100	293
4	16145555	6150	293