version 2
run HStreamingChurn-0-20140401-20:47:31-2284
attr configname HStreamingChurn
attr datetime 20140401-20:47:31
attr experiment HStreamingChurn
attr inifile htopology.ini
attr iterationvars ""
attr iterationvars2 $repetition=0
attr measurement ""
attr network oversim.underlay.simpleunderlay.SimpleUnderlayNetwork
attr processid 2284
attr repetition 0
attr replication #0
attr resultdir results
attr runnumber 0
attr seedset 0

vector 1  SimpleUnderlayNetwork.globalObserver.globalStatistics  "ParetoChurn: Session Time"  ETV
vector 2  SimpleUnderlayNetwork.globalObserver.globalStatistics  "ParetoChurn: Time between creates"  ETV
vector 3  SimpleUnderlayNetwork.globalObserver.globalStatistics  "ParetoChurn: Time between deletes"  ETV
vector 4  SimpleUnderlayNetwork.globalObserver.globalStatistics  "GlobalNodeList: Number of nodes"  ETV
1	3150163	1000.519880386	2192.0746567953
1	3224090	1012.252586602	431013.59881432
1	3239795	1014.787358013	177.03889549512
1	3255348	1017.254649933	647.54797725579
1	3293539	1023.307928437	13415.330177643
1	3347450	1032.006196179	62541.598370234
1	3483880	1054.270128471	192516.62388306
1	3629206	1077.925976684	258.33450810943
1	3659555	1082.875100988	2597.2442945988
1	3689331	1087.724926786	7353.9396920166
1	3733954	1094.965493659	14855.337197881
1	3744971	1096.759185249	2981.5716095317
1	3945208	1129.337995927	12917.280292895
1	3977703	1134.606686524	16.075903618408
1	4022796	1141.974401084	1115.6087218221
1	4091137	1153.074525859	73.920437614083
1	4173651	1166.519810374	96.143639946532
1	4226167	1175.081079799	3579.40427837
1	4264537	1181.290668956	798.90370259517
1	4309202	1188.577464503	510.9638934796
1	4442591	1210.257186363	25.946656273066
1	4443093	1210.345473587	56042.584226433
1	4472060	1215.044772407	1922.5904249177
1	4495432	1218.888711145	85638.890165598
1	4545158	1226.916091816	49.033195308604
1	4674900	1247.963537059	1816.7796666411
1	4731177	1257.13173134	2955.3641540585
1	4759819	1261.808021463	724.3791872338
1	4784180	1265.75945915	25154.077068554
1	4831837	1273.438041154	169.22641493906
1	4880243	1281.259724755	355.88171707515
1	4990190	1299.085392269	434.70297632504
1	5015821	1303.211716563	13693.994585502
1	5027856	1305.162727523	374.12349875384
1	5062990	1310.894980756	4376.1662683272
1	5100358	1316.935805154	329.38541252553
1	5137696	1322.954735275	3039.9687126642
1	5318347	1352.092668268	31637.305639667
1	5319505	1352.245838861	37.986760914739
1	5407721	1366.498786865	2751.1163626805
1	5551370	1389.589975831	145.86589819618
1	5693918	1412.489859811	1546.1710103907
1	5745843	1420.812488928	16173.376569739
1	5830913	1434.488384662	506.51965301293
1	5866310	1440.173036223	21886.152783647
1	5922289	1449.230953563	42110.329880014
1	5967819	1456.538084623	605.29877523698
1	6025819	1465.904795427	1142.3066058324
1	6057156	1470.955641882	1401.6342125512
1	6060626	1471.479261067	490.99435624584
1	6136508	1483.698180553	2818.3284213701
1	6161821	1487.725486188	1393.6701838373
1	6170202	1489.081346737	775.95685181234
1	6219442	1497.021632836	9403.5189685829
1	6331259	1514.910238797	22847.442813741
1	6357518	1519.078984951	2007.086726016
1	6426863	1530.120438303	65.523129117888
1	6438394	1531.96802768	221.80702734232
1	6581530	1554.752429683	310.611389118
1	6590796	1556.188490858	9506.1279679462
1	6642501	1564.403237407	202.00350259758
1	6675113	1569.614094359	47471.779522722
1	6727442	1577.856206016	506.87603968976
1	6739036	1579.691585178	5575.9589852496
1	6758341	1582.746970174	273.11807275011
1	6777209	1585.775668142	11351.24599956
1	6893646	1604.570304474	8713.0642999608
1	6907544	1606.823703921	335.08291541175
1	7106218	1638.934507286	1011.2660440188
1	7150871	1646.174807315	2981.4930920801
1	7195990	1653.491704483	7685.3086247479
1	7320346	1673.684874992	31229.4473961
1	7358795	1679.943586807	207.86287446253
1	7423298	1690.457304402	2099.960912282
1	7435177	1692.391951458	48.953550997793
1	7506246	1703.931459931	456.65455413238
1	7530465	1707.833473164	429.31743673949
1	7541038	1709.52408864	83684.478169937
1	7644579	1726.422174626	89645.501131736
1	7674522	1731.248196229	86.962354316316
1	7694920	1734.607246943	294.28971051522
1	7829965	1756.56715117	1305.5670179126
1	7981843	1781.206055833	422.33212912362
1	8084356	1797.861068445	35623.046488156
1	8144767	1807.700771132	211.26200215508
1	8218507	1819.693491643	688.26347880483
1	8221862	1820.183715482	3033.9457190265
1	8390434	1847.665297028	375.78019027467
1	8438947	1855.515651084	34958.761586356
1	8462320	1859.325455329	4509.3029734167
1	8597915	1881.405529204	19983.791643947
1	8605018	1882.607845557	1885.5680559749
1	8710719	1899.755600121	3954.4760454354
1	8950191	1939.847882978	12083.852635575
1	9076247	1960.759604212	32302.62300731
1	9121261	1968.257385933	32692.490158346
1	9129751	1969.694685364	5638.3384045212
1	9148283	1972.750647539	34051.289357599
1	9210346	1983.055760153	138.86891919482
1	9266877	1992.454816237	10666.334500619
1	9307043	1999.137854333	362.36185315801
1	9318515	2001.063575877	1992.1975731576
1	9363741	2008.47827006	95.959371995047
1	9395154	2013.704531994	3.2617396217215
1	9444053	2021.818927726	1435.4253151891
1	9457418	2024.030086934	6095.4671575797
1	9463396	2025.002361893	1516.1983402816
1	9630148	2052.616853631	93.050184802889
1	9666140	2058.589322026	1624.3232219091
1	9746409	2071.865523304	318.23456815888
1	9807791	2082.009469962	64982.261992085
1	9851377	2089.199556772	169.73231052454
1	9858572	2090.397532036	974.24180930761
1	9868538	2092.06481425	436.19663838852
1	9878944	2093.794105634	305.75896513314
1	9883276	2094.465416193	272.48801132427
1	9909752	2098.833627921	2661.9564641509
1	10082120	2127.189990553	1857.7276909443
1	10157807	2139.667314722	2550.3054471485
1	10157899	2139.679094793	4708.3534138907
1	10197357	2146.145658233	7252.0524436198
1	10202024	2146.936426971	17733.23554407
1	10233932	2152.149214424	18575.849891193
1	10238979	2152.977675099	39645.582208115
1	10256503	2155.864228237	954.48371372699
1	10337401	2169.095490714	11363.454108437
1	10357473	2172.416009299	5312.9894747205
1	10430597	2184.45131888	39124.420125247
1	10457154	2188.825857355	201.96756296796
1	10488550	2193.958317835	4235.9651445457
1	10489821	2194.128976487	1120.9653863462
1	10497684	2195.406648339	19864.887083279
1	10528494	2200.478785014	10877.725832882
1	10687777	2226.530100363	36.149716001434
1	10699659	2228.478230036	2576.4058796319
1	10785766	2242.687831536	29200.73999318
1	10787411	2242.964373856	417.75553277654
1	10837667	2251.075660506	3580.375856175
1	10892717	2260.051108629	5614.0641948684
1	10939441	2267.716717123	9305.4168547912
1	10940151	2267.837965124	899.71691992856
1	11000899	2277.760826401	228.22952682112
1	11256022	2319.416528555	334.03263089595
1	11260946	2320.224170532	237.54510710562
1	11270280	2321.791547318	244.91617694522
1	11287959	2324.66920224	1015.1380324143
1	11288207	2324.703066717	8650.7618288708
1	11298066	2326.279373162	207.89183656328
1	11328226	2331.165563993	2564.0934622404
1	11422645	2346.566145919	16817.56404548
1	11568407	2370.913270796	695.7469838953
1	11626819	2380.603980992	1253.8998110571
1	11656823	2385.49402051	6357.1341530218
1	11663092	2386.518390998	1643.332923486
1	11690723	2391.065577219	885.41689696403
1	11767660	2403.758784098	2235.094612128
1	11820390	2412.449319901	18379.046885435
1	11930865	2430.737273084	9741.6736224312
1	12076953	2454.794295664	1543.0247912359
1	12091404	2457.158079644	153.15862831191
1	12132541	2463.940084639	74.890123895725
1	12307430	2492.857543609	1100.2088955267
1	12335204	2497.364610186	7836.5949498571
1	12359921	2501.427680494	43.266073713969
1	12410774	2509.804646343	1.6292673850534
1	12419156	2511.156827349	3061.2512908147
1	12475816	2520.494831688	183.84340334092
1	12533534	2530.010458526	520.11708417073
1	12570567	2536.160599518	4538.8598957975
1	12682259	2554.537968186	734.16552190176
1	12708429	2558.868069934	1584.0360322775
1	12762498	2567.877496915	292.76897259312
1	12794326	2573.095196697	9703.6419554757
1	12794901	2573.177007156	4311.6480706872
1	12848682	2582.222636266	29248.413060251
1	12852107	2582.841359791	4431.7830191682
1	12967356	2602.46681962	935.91052149612
1	12990448	2606.429826231	620.99411400236
1	13072278	2620.250873565	6932.443308692
1	13130698	2630.121244758	16293.120250817
1	13259930	2652.031935201	71.371967749257
1	13305551	2659.793703224	2501.049845827
1	13414188	2678.196133499	3019.6316591397
1	13445078	2683.435536602	82.870463557427
1	13459559	2685.919788625	3682.8877043715
1	13470353	2687.725579594	1853.0196064699
1	13518238	2695.795249248	3574.348789341
1	13553357	2701.705635234	1855.627419536
1	13559944	2702.80618003	280.02491461765
1	13574311	2705.192459647	477.27453856367
1	13592452	2708.225755215	39552.834284967
1	13714675	2728.910399203	249.305976448
1	13728686	2731.276329897	3922.7550282293
1	13848569	2751.339162784	888.10891509228
1	13870745	2755.049633026	698.14048408145
1	13900821	2760.136641872	2051.7397223861
1	13925952	2764.310303722	234.6166035494
1	13932337	2765.411434795	7523.2819607883
1	14032197	2782.074255843	53783.03464037
1	14138773	2799.847617625	160.77993809467
1	14162001	2803.725178724	456.24776568819
1	14264472	2820.777416175	1233.0684551306
1	14337086	2832.843724498	1622.0607067587
1	14369741	2838.27531591	3790.8672407
1	14452638	2852.171951883	18213.978752181
1	14498140	2859.690552148	2504.2950061534
1	14529633	2864.891583411	3107.4846410578
1	14683118	2890.34632261	819.55114368052
1	14685146	2890.679124425	21663.728823117
1	14792476	2908.548227337	33040.663824262
1	14980586	2939.702928946	927.19125933701
1	15024027	2946.90905255	4033.0628424517
1	15066323	2953.848234238	125368.25696264
1	15132779	2964.903194395	2091.5139626793
1	15156271	2968.840379379	1584.0063878326
1	15244807	2983.492241026	874.29190702961
1	15256851	2985.429106173	386.9434495621
1	15357439	3002.001086384	2621.8316374038
1	15416614	3011.738065783	44.542232728167
1	15425138	3013.116287757	728.2029111609
1	15428362	3013.65827453	109225.38020618
1	15490813	3023.950948728	3238.5660769935
1	15626706	3046.27605289	1400.6075133593
1	15654451	3050.849372241	11676.5549612
1	15674884	3054.199657651	7446.8108912969
1	15707888	3059.649725797	70.036271960497
1	15839977	3081.71064906	1354.7820452972
1	15991616	3107.093883525	511.91754968899
1	16039202	3115.09604639	1252.860560343
1	16123045	3129.087053672	1583.2598497854
1	16136001	3131.234338401	3396.0598135136
1	16206985	3143.144814798	583.69861801949
1	16344224	3166.132892574	1264.4413699618
1	16410957	3177.274567366	18234.06301808
1	16523455	3196.075920435	115.25452501786
1	16555052	3201.395447449	56621.337761033
1	16569118	3203.760462536	1545.3423790302
1	16653605	3217.936473656	9483.0224552468
1	16700008	3225.696838983	1608.0260734129
1	16706718	3226.785127422	4920.8792816719
1	16765943	3236.659687343	5401.3419916962
1	16955064	3268.165190474	2800.2726548723
1	16993977	3274.697046364	47245.032592943
1	17007988	3277.062740386	27.576017740106
1	17029182	3280.574598691	1684.6750757309
1	17320783	3329.099107259	1520.797760973
1	17327962	3330.317121718	7878.6973890149
1	17429238	3347.233008548	9823.977382516
1	17505874	3360.004471326	35141.689845887
1	17549254	3367.199616768	372.37990395897
1	17640197	3382.36822842	8433.2409227407
1	17653406	3384.595351375	10784.076525928
1	17681664	3389.274946606	6649.7984672346
1	17839682	3415.663743174	6216.4606974292
1	17839809	3415.681850623	17.513676219368
1	17840437	3415.779000272	3128.9778764346
1	17865079	3419.928908342	689.18036224284
1	17893539	3424.6993499	741.40657689271
1	17899043	3425.620977278	32.596799725051
1	18000111	3443.018181548	1322.7957383641
1	18023967	3447.779375101	90.375917179959
1	18076340	3458.171129087	5372.4027433057
1	18131570	3469.208262817	708.8080844092
1	18186926	3480.197692496	131.19936417675
1	18187973	3480.431352328	5141.2751776011
1	18201464	3483.096613656	379.22710553292
1	18206951	3484.1823956	57415.323511711
1	18209273	3484.665552271	5830.5189032452
1	18211934	3485.180440158	3000.1777970405
1	18286020	3499.901137153	933.20710926613
1	18286507	3499.990424348	12556.953622064
1	18317575	3506.145176765	2188.8669985042
1	18356082	3513.796191154	3292.912773597
1	18382967	3519.163300442	4596.0856318566
1	18615915	3565.355143092	73.668720040582
1	18714812	3585.106105232	510.42368857513
1	18892132	3620.299256439	2793.1462974428
1	18917855	3625.44744497	3394.4628157366
1	19004165	3642.696884103	554.84262571772
1	19179848	3677.742531142	769.13335311422
1	19191372	3680.041078251	5951.7100252813
1	19255270	3692.782567392	618.28195613313
1	19315001	3704.792964963	2971.0472215131
1	19360536	3713.868234235	177.50818770982
1	19400924	3721.918638693	57.984474434888
1	19401533	3722.018476703	11190.174914985
1	19482318	3738.173272486	1740.9909738233
1	19492532	3740.2240851	22140.471518476
1	19507326	3743.072527391	1162.1217663363
1	19544768	3750.567312679	262.93986986787
1	19595026	3760.53488299	1548.2442550221
1	19679366	3777.173554057	6.6908897258358
1	19694096	3780.112283391	2810.5699608871
1	19708778	3783.013456094	334.88894781483
1	19797191	3800.520192274	1650.1053995228
1	19847380	3810.408606448	18378.083484502
1	19857829	3812.504135993	9449.0958963108
1	19863588	3813.63665146	985.14262684822
1	19893002	3819.39171819	3798.922095785
1	19963452	3833.341788671	1107.1291209043
1	19982646	3837.081496434	6322.6878747904
1	20054988	3851.284685543	5119.7748371611
1	20070864	3854.404074761	1328.0945577684
1	20146281	3869.171593325	1045.2417474902
1	20166163	3873.100254909	4898.8671014052
1	20191967	3878.172939102	489.72305903582
1	20246517	3889.21558611	1186.7459091492
1	20314213	3902.770731361	1756.1562919287
1	20357939	3911.504788519	504.87015243197
1	20483664	3936.555917147	6773.4524062298
1	20577993	3955.419737792	223.6680192768
1	20601006	3959.998492764	827.95856311665
1	20723535	3984.154665957	366.98774768156
1	20757021	3990.749139755	524.0248962393
1	20798788	3998.999112647	1187.0838441327
1	20815826	4002.347981577	3236.3256588509
1	20898356	4018.641708761	1451.432396995
1	20914148	4021.726875246	99.406923103366
1	20986990	4036.117116968	192.9718629026
1	21014319	4041.514021287	2099.9178013987
1	21118796	4062.040310047	594.92145183372
1	21166214	4071.420208132	2073.8477735425
1	21181932	4074.547764363	121.98731367834
1	21220841	4082.181553999	8825.1409624681
1	21292644	4096.31924835	3396.0575575658
1	21357934	4109.149602568	1581.3007853564
1	21380185	4113.555320846	25061.8270011
1	21484560	4134.192476271	4150.3115379375
1	21589932	4154.96605563	23649.765875418
1	21656121	4168.022255465	900.8621506461
1	21710117	4178.697169876	1217.0850501964
1	21721350	4180.892356449	1072.2495124672
1	21803650	4197.136429706	15568.162666187
1	21861470	4208.5840295	520.50463523228
1	21881954	4212.633659718	2210.2734930884
1	21883084	4212.882949485	5616.1413321482
1	21945541	4225.198221338	8259.0654666471
1	21985722	4233.059387328	314.92377717402
1	22017216	4239.24479578	1749.320432219
1	22126434	4260.765159327	131346.5978944
1	22207214	4276.5824587	8719.1228023821
1	22216545	4278.383682532	3705.3216304193
1	22276758	4290.136538623	293.04576865954
1	22417067	4317.647559898	199.29990908507
1	22487567	4331.49334822	603.83000675815
1	22491572	4332.221286614	773.61060717541
1	22522792	4338.340024948	1.5469914784152
1	22614519	4356.255410123	30.806582480712
1	22688770	4370.75185341	1572.9062989974
1	22713793	4375.692456246	514.50617587731
1	22801628	4392.747703458	9058.6019482949
1	22812141	4394.793419201	14907.857786125
1	22812724	4394.920440121	4899.9576001588
1	22820332	4396.406678858	80.771623232387
1	22858063	4403.683146969	12987.670883
1	22894609	4410.761121708	1647.1699374602
1	22914513	4414.612521262	2447.0672656648
1	23017829	4434.720692884	1994.9615084309
1	23061575	4443.160417418	448.49429080141
1	23090847	4448.822358914	17234.743176331
1	23099011	4450.464762264	4084.5678532783
1	23135729	4457.51646725	1227.3636051499
1	23140664	4458.476322558	33314.623196626
1	23268871	4483.289637767	6612.7164577603
1	23280521	4485.524317794	9685.7389012563
1	23495069	4527.086073251	4144.3116445848
1	23510897	4530.185242569	990.46992617015
1	23517432	4531.404076551	61.664035358443
1	23557600	4539.13632363	45814.321341086
1	23557686	4539.148422941	1792.7656289369
1	23596835	4546.693528848	1864.0747608113
1	23646244	4556.302483272	500.84517039314
1	23875866	4600.685431631	4789.3076959946
1	23941099	4613.362455233	3277.345983838
1	23980477	4620.987897685	673.95135362469
1	23985040	4621.857913412	294.54271514521
1	24014495	4627.582509697	438.12789145357
1	24090054	4642.196648662	12981.27750572
1	24129236	4649.768767705	445.1658861457
1	24173642	4658.354116863	6394.3942101417
1	24250352	4673.161833041	96.878373950269
1	24270453	4677.076265177	36140.594107622
1	24297734	4682.325463073	9660.78767263
1	24333658	4689.22934882	1828.7292215018
1	24539633	4728.858071117	18505.048869216
1	24614031	4743.11728669	1511.1931619166
1	24742822	4767.952378975	233.88453523044
1	24910346	4800.231253079	191.06443610168
1	24914563	4801.032824769	580.50776904858
1	24931579	4804.23919659	171.442918501
1	25079766	4832.731947803	1189.2009478531
1	25083308	4833.456165512	22384.168665568
1	25108312	4838.139840708	3074.719433648
1	25131108	4842.536118731	37123.186770063
1	25194989	4854.806655691	38.600572674813
1	25220106	4859.572375478	430.00749173288
1	25303045	4875.474448974	27401.382202642
1	25304904	4875.841544431	4939.6468736742
1	25386192	4891.303740542	709.33482552822
1	25491837	4911.528152147	238.703199686
1	25512978	4915.569754234	5344.6950781606
1	25535892	4919.967874244	4578.0578645323
1	25544208	4921.517948215	293.01073075065
1	25604041	4932.955051629	3803.6622794742
1	25615979	4935.213872009	129143.45798595
1	25651470	4941.989600065	1470.5808416004
1	25669170	4945.37764672	22432.896111803
1	25675281	4946.492249337	1420.6724941695
1	25679171	4947.201119843	8354.0730300308
1	25746118	4959.998517309	1564.8645927964
1	25816547	4973.418787092	4622.0156394733
1	25828447	4975.670884509	5153.2635186919
1	25830762	4976.106768321	49265.552615373
1	25845284	4978.822227525	1633.2755164925
1	25887222	4986.844661817	110.83528816988
1	25894176	4988.118734815	210.9199603549
1	25927766	4994.506189168	9453.1054030101
1	25928858	4994.687067606	238.15825769163
1	25975179	5003.485266884	1345.354512059
1	26018440	5011.629443844	1135.3736253457
1	26083414	5023.913938382	1469.6359895739
1	26130137	5032.814457717	20206.491203941
1	26139702	5034.613011081	99.125216017354
1	26270362	5059.307461555	3361.6887449394
1	26351372	5074.666724742	3246.2559325534
1	26395827	5083.048072316	4649.4416707205
1	26402917	5084.42046985	1353.9803010227
1	26476549	5098.372944267	6028.4593830746
1	26590154	5119.867356531	72987.459211649
1	26779476	5155.734445781	6901.8442952685
1	26813959	5162.243264601	2053.2329432046
1	26819006	5163.188323795	110.20625065413
1	26824571	5164.214089322	1992.9217010937
1	26869397	5172.725185245	2024.7324103617
1	26885323	5175.80387081	45081.417792554
1	26932399	5184.635630793	940.97214222552
1	26971174	5191.936334143	14345.840090519
1	26978107	5193.218960637	2515.5133534376
1	26990958	5195.655694662	12424.346878364
1	27009928	5199.204181761	166.07621701942
1	27225332	5239.80541491	428.91687868702
1	27436170	5279.459756811	16260.398384906
1	27457083	5283.321006488	1338.0417987997
1	27466311	5285.053956844	60469.991773018
1	27487978	5289.116477681	61815.341427727
1	27649223	5319.401098574	840.01054126468
1	27649950	5319.522768282	14897.161397236
1	27714236	5331.613326714	60.216603077885
1	27714277	5331.619779419	1163.5955255447
1	27846681	5356.452047706	2252.0170287501
1	27950313	5375.865073111	42106.305746004
1	27968994	5379.400154032	263475.60740044
1	28019916	5388.94609201	4987.4654358792
1	28021194	5389.140532814	116.6021519876
1	28061649	5396.755999721	7035.039241771
1	28145810	5412.550692742	134.78166679164
1	28301608	5441.713310618	10019.906108775
1	28319038	5444.964707567	447.51768307001
1	28342557	5449.362253409	32.683585055808
1	28407842	5461.568258401	2225.0730297163
1	28465455	5472.348236327	1130.7371391166
1	28529158	5484.255421988	2052.518843377
1	28648525	5506.591683126	5053.3920532999
1	28654916	5507.753172017	238.7286020089
1	28663528	5509.404592473	61.433957469391
1	28717308	5519.49015441	2260.0007268032
1	28892185	5552.108950231	4106.7070280669
1	28915539	5556.470549148	429.39862089309
1	29052508	5582.054876837	473.57724822269
1	29061927	5583.78140827	2296.0864409744
1	29078499	5586.848832408	1516887.7242501
1	29133630	5597.107440343	190.10675027112
1	29257282	5620.081542677	43286.134036933
1	29398719	5646.47667507	61.945786265984
1	29463629	5658.574336171	1132.0342326394
1	29574618	5679.184892631	2891.914570843
1	29767415	5715.19577894	7467.2425844139
1	29779092	5717.420760679	466.6261178544
1	29783980	5718.317501527	11.280616797585
1	29845436	5729.767464805	5626.9711214653
1	29865017	5733.4008409	746.46499970043
1	30053008	5768.415117874	93231.286922028
1	30213109	5798.299521903	89.907937117329
1	30383034	5829.937488695	53306.577362437
1	30444764	5841.453597402	7090.5669861739
1	30464549	5845.162002755	4144.2354695655
1	30500765	5851.847494696	3164.4913180014
1	30546752	5860.359592845	20653.231087029
1	30549358	5860.822328916	819.6665031839
1	30563212	5863.367419876	2780.9241263538
1	30577292	5865.986241206	1841.8591558241
1	30602825	5870.715499472	1288.9000059822
1	30769676	5901.656885719	223.4893565732
1	30781720	5903.887714663	6361.6795338445
1	30804249	5908.043507354	393.91645265544
1	30964540	5937.648800833	4073.844976418
1	31064492	5956.094189455	1589.629587956
1	31146808	5971.270740058	3265.0658397733
1	31183713	5978.082555334	10484.291438638
1	31206180	5982.219585378	19807.409348
1	31248903	5990.05183316	4964.7309101079
1	31273079	5994.517092717	65817.535310498
1	31359142	6010.384314185	690.3023201055
1	31463069	6029.597285591	5599.7540129258
1	31499902	6036.377939317	293.8683900069
1	31537641	6043.286616759	2939.8970760104
1	31675464	6068.746187875	43797.922342758
1	31766332	6085.543941465	1912.2299295566
1	31934544	6116.589825795	199.04631053195
1	31945809	6118.689803848	201.52549646441
1	32045481	6137.058970816	7195.7375428064
1	32100073	6147.126192342	1037.5745468407
1	32130951	6152.818175926	246.25419617811
1	32155177	6157.249331927	9158.5072932629
1	32255949	6175.744288178	923.26017212759
1	32288519	6181.727113196	2085.9276580544
1	32448843	6211.208461344	987.04387450462
1	32531618	6226.331707492	3987.7357455511
1	32584492	6236.036516173	290.34746107058
1	32599137	6238.70344165	289.97333124372
1	32690271	6255.398942786	63119.742422547
1	32697058	6256.651618424	760.04723739124
1	32737341	6264.010986833	84.075018919686
1	32751088	6266.544203989	14275.724591049
1	32794488	6274.514023322	16088.074845432
1	32866903	6287.715272417	1015.1780464115
1	32914144	6296.428309921	3831.5676333852
1	33043017	6320.010266027	101.99505536537
1	33062162	6323.613268686	1100.755204345
1	33109287	6332.203258858	1506.0589954446
1	33170123	6343.387769223	6671.8884813531
1	33276128	6362.869362443	4592.9000846139
1	33281818	6363.909517842	1131.3475307173
1	33283012	6364.082489323	201.61381687419
1	33372672	6380.507420083	505.41892660801
1	33480204	6400.194966572	9020.6823818698
1	33489364	6401.916300028	5850.2400236032
1	33584397	6419.299731698	193.57603518919
1	33590025	6420.28644577	3139.5854330872
1	33610946	6424.175445304	3030.3265822839
1	33614483	6424.820718791	32.999577881591
1	33647642	6430.893900601	2485.4394423153
1	33705288	6441.453695082	17780.674334583
1	33722880	6444.658309849	8271.3832613809
1	33827663	6463.837564345	45.112588169131
1	33830768	6464.420474256	43851.225767877
1	33838823	6465.885702653	133615.9074674
1	34010722	6497.268523757	355.01858102823
1	34229884	6537.360165433	245.49684608546
1	34233073	6537.96325742	3056.0434881923
1	34312086	6552.404605907	94.783770311874
1	34371739	6563.314455499	1980.8668344231
1	34371871	6563.338690707	4371.3476203027
1	34373823	6563.685945459	83815.171853511
1	34391556	6566.950469472	9593.2489781268
1	34433287	6574.590459242	860.98012799148
1	34438200	6575.485974152	1186.1406376168
1	34551765	6596.199872278	31400.440808688
1	34590759	6603.363108725	2487.7573574977
1	34618013	6608.271117075	1042.7817079271
1	34631592	6610.794149495	274.6223821577
1	34642116	6612.658150347	1785.7987268004
1	34651828	6614.472806342	938.50533803177
1	34674554	6618.602488121	58.444694514503
1	34693816	6622.074916705	10886.291727851
1	34696590	6622.582532531	953.75510866276
1	34740678	6630.605822144	13263.321415218
1	34767112	6635.375034069	8.1871412050375
1	35079236	6692.017331836	13156.115706294
1	35170399	6708.498176476	418.23137887923
1	35188540	6711.819504343	40.378481629435
1	35245289	6722.03330191	277.84631107016
1	35277160	6727.871688464	25618.773019995
1	35307439	6733.324669287	10697.091816229
1	35313945	6734.499988573	177.01192673729
1	35339890	6739.229287533	93797.348519117
1	35392557	6748.692808515	4516.554143007
1	35439537	6757.19791031	299.52492724693
1	35440256	6757.332551242	2691.5197588798
1	35452272	6759.52483159	429.32437165626
1	35629749	6791.471334395	23252.362912759
1	35706419	6805.25745215	1206.1585991799
1	35841447	6829.578676783	3220.0899174856
1	35843658	6829.990273159	7.3446490811635
1	35887874	6837.903502649	2659.6291817621
1	35890454	6838.339546756	1848.1562653978
1	35893187	6838.841745096	257.39834505854
1	35898607	6839.784862246	4585.0782703688
1	35945712	6848.249239149	100260.51238648
1	36048024	6866.680339136	432.2859075122
1	36109919	6877.798630398	25.034522812124
1	36159978	6886.815492479	1767.5294304101
1	36160460	6886.906336975	8337.3386260781
1	36184431	6891.18376622	59.356119265762
1	36234661	6900.188095765	15714.335646597
1	36273152	6907.152161227	808.1687567817
1	36354395	6921.854004627	94.730614125944
1	36387046	6927.704267271	1446.8048890024
1	36396037	6929.286649304	7553.9275759843
1	36465222	6941.741103862	45486.24542547
1	36467397	6942.109127679	227.31365172828
1	36577838	6961.887011126	61342.209091466
1	36580522	6962.346519081	61434.313866917
1	36599734	6965.803845133	505.40450523169
1	36640207	6973.029680588	187.16472948049
1	36656377	6975.926554497	1941.7848140225
1	36667591	6977.923689666	1251.8488608211
1	36678599	6979.812517239	34.28453098573
1	36687831	6981.50700938	1726.195407236
1	36837785	7008.157384215	12900.701828875
1	36888482	7017.177235319	927.12197059284
1	36961763	7030.212793151	22148.151709832
1	36992878	7035.761371274	862.45747271522
1	37008253	7038.485570324	8.8337331182328
1	37021825	7040.852764652	10539.979224006
1	37077776	7050.824988606	14252.593904696
1	37093555	7053.54973831	49827.814324739
1	37099219	7054.569850872	27392.350688021
1	37123274	7058.888886437	679.0324720916
1	37129327	7059.926876582	1563.4162253478
1	37171114	7067.388186676	19226.716473254
1	37312147	7092.353276738	3567.9211897593
1	37368223	7102.217374513	2837.1474821579
1	37485961	7123.127216413	24004.472396651
1	37631835	7148.99299796	20191.919082296
1	37898176	7196.366668364	13076.819173271
1	37931637	7202.318409135	2984.0927539169
1	37955431	7206.588490419	1337.4008936442
1	38121869	7236.273431374	493.92483743873
1	38174544	7245.761744616	144.62341223866
1	38215493	7253.019526528	4006.33114178
1	38246404	7258.530252926	24345.401096246
1	38264362	7261.715128859	946.99944287363
1	38322387	7272.048190046	17320.230351117
1	38346489	7276.375814862	15861.473753522
1	38480657	7300.272698711	41.211176252216
1	38579752	7317.889882575	1340.7084529804
1	38698471	7338.962980576	54.428235324686
1	38706268	7340.342859391	29278.17369823
1	38798326	7356.686180759	47775.423223487
1	38860156	7367.700847991	7749.382737929
1	39029368	7397.761512792	55896.154685284
1	39179419	7424.291316938	74.77148276672
1	39185621	7425.41559132	3048.6756925829
1	39308335	7447.148428123	3584.7852621671
1	39395697	7462.621050104	355.24812107369
1	39446420	7471.651065656	447.67055870808
1	39460923	7474.219943793	97.112354987929
1	39517492	7484.219672551	38.682894365974
1	39540443	7488.277687595	14125.638641523
1	39542814	7488.712424229	310.3630596826
1	39637793	7505.539980931	124.24377266925
1	39691520	7515.082137447	337.86652556102
1	39773007	7529.519679083	176.79744397936
1	39854266	7543.946060491	29979.746127159
1	39858050	7544.58724872	1063.4725076609
1	39898608	7551.794906351	4712.7244619393
1	39919736	7555.480070675	294.57717730842
1	39942107	7559.423476271	621.91029754329
1	40049130	7578.418326097	32.462692573587
1	40260609	7615.911959762	25278.311470661
1	40371593	7635.610593719	20180.87378807
1	40394727	7639.750444295	1094.1972493831
1	40413538	7643.039335708	26829.693121759
1	40488099	7656.26432816	11280.010200813
1	40497725	7657.946027735	2686.3334921641
1	40540015	7665.431478538	21623.086645851
1	40567422	7670.32525029	4036.2542710601
1	40571889	7671.066446125	8358.7328141095
1	40745098	7701.718199243	163.18974663822
1	40756854	7703.800400909	183.00646888311
1	40775983	7707.101518867	322.10526601818
1	40792411	7710.065261539	1094.9631193545
1	40824124	7715.644958058	106.68978299009
1	40896804	7728.494857295	3390.1806021722
1	40969915	7741.384723074	2145.4162865213
1	40988909	7744.773358872	40.660106729184
1	41045460	7754.73761975	22836.713542559
1	41045499	7754.741557957	341.72670350054
1	41085098	7761.712535058	765.01909301604
1	41129846	7769.565380102	6307.6927872471
1	41158007	7774.52513839	1203.024508533
1	41175143	7777.542387967	7755.566805234
1	41251504	7790.985138886	3652.4308188354
1	41265064	7793.373548974	72942.939520263
1	41288493	7797.486084239	2961.3326652357
1	41313351	7801.869676778	4166.1986211593
1	41375457	7812.811291313	262.24906935752
1	41464763	7828.483939029	656.90687361594
1	41504832	7835.564115437	8891.5602356559
1	41539855	7841.714722018	1215.1687787103
1	41587638	7850.156438276	939.20491164789
1	41599078	7852.145508769	56.459864829803
1	41610249	7854.073250461	1641.153232472
1	41737010	7876.356307063	217.39304137504
1	41860525	7898.00453762	205.74486019937
1	41870915	7899.838104555	2358.1285174934
1	41884953	7902.30199693	2196.4285701459
1	41889617	7903.083691024	5877.8088641372
1	41997239	7922.024846871	240.97727442578
1	42111799	7942.168592909	23906.302009684