version 2
run HStreamingChurn-0-20140405-18:22:07-7860
attr configname HStreamingChurn
attr datetime 20140405-18:22:07
attr experiment HStreamingChurn
attr inifile htopology.ini
attr iterationvars ""
attr iterationvars2 $repetition=0
attr measurement ""
attr network oversim.underlay.simpleunderlay.SimpleUnderlayNetwork
attr processid 7860
attr repetition 0
attr replication #0
attr resultdir results
attr runnumber 0
attr seedset 0

vector 1  SimpleUnderlayNetwork.globalObserver.globalStatistics  "ParetoChurn: Session Time"  ETV
vector 2  SimpleUnderlayNetwork.globalObserver.globalStatistics  "ParetoChurn: Time between creates"  ETV
vector 3  SimpleUnderlayNetwork.globalObserver.globalStatistics  "GlobalNodeList: Number of nodes"  ETV
vector 4  SimpleUnderlayNetwork.globalObserver.globalStatistics  "ParetoChurn: Time between deletes"  ETV
1	68781	144.074201019	4049.3225882539
1	387209	570.666384515	13409.189214422
1	413156	604.889275726	61.907854005359
1	426941	622.796629741	17250.020190509
1	510346	730.528348663	6831.3114360377
1	551970	783.913080109	494.21034680042
1	708276	982.671835603	1980.5944930496
1	872881	1190.452510686	3602.1912972883
1	993389	1341.296647645	5586.1685705549
1	998001	1347.073819207	545.21763579364
1	1013359	1366.194702173	40114.836058261
1	1149343	1533.870293783	5683.7643796587
1	1249704	1658.514508405	370.00864688889
1	1274896	1689.69206605	7188.5093395891
1	1546055	2021.747200361	5602.3989782111
1	1602097	2090.545962592	4185.3155254971
1	1790433	2320.050631221	2856.2736928239
1	1849213	2391.056628117	25445.367341895
1	1914424	2468.508995681	6.0637786800093
1	2008670	2579.843779034	2201.51516898
1	2057045	2636.645023918	2375.155432725
1	2080058	2664.029606629	671.84184892135
1	2085928	2670.895392174	7199.9059468868
1	2232578	2841.326132797	38.438919951126
1	2269603	2883.921418016	523.30088008559
1	2379533	3009.904739196	254.81156067827
1	2547243	3200.545541966	5776.2941800776
1	2987860	3696.613384305	5473.6993608089
1	2999039	3709.114772082	115.92294644638
1	3013167	3724.706848768	613.29591400476
1	3071291	3788.496081173	39098.211363025
1	3346927	4089.329558832	10258.22721435
1	3441958	4192.369453452	2.7617942702152
1	3533176	4290.917710072	108.72467691609
1	3538546	4296.65379995	1886.6769397492
1	3774022	4535.751942815	13495.69851413
1	3988697	4750.128587266	17638.461992237
1	4197664	4957.601451653	2156.4552824678
1	4283048	5042.057519814	1723.2044443941
1	4554839	5309.435241328	422.98101247312
1	4840276	5586.718088316	6186.8147360163
1	4992698	5733.842746441	44942.702431893
1	5159430	5896.154971495	10346.657377101
1	5550199	6273.770319147	148.04726006933
1	5577444	6300.128047075	3290.0568871846
1	5601175	6322.92007118	629.70703029867
1	5676953	6395.297584631	1730.6307025729
1	5816586	6528.052456236	2833.4431000946
1	5817344	6528.762697101	208.28181962187
1	5829206	6539.756815407	3554.485030866
1	5833976	6544.206681407	47306.653128966
1	5892411	6597.923101041	323.97026607909
1	6105252	6792.471647562	7152.1151804288
1	6182457	6863.359079052	224.26360266724
1	6205227	6884.150165858	142.96119158598
1	6279572	6951.558661258	1737.2395697866
1	6357973	7022.582047515	127.14150997512
1	6386965	7048.762181552	1603.5940872935
1	6473221	7126.320179271	9542.2902520993
1	6616330	7254.29497522	4406.7926210946
2	68781	144.074201019	45.269925976
2	387209	570.666384515	426.592183496
2	413156	604.889275726	34.222891211
2	426941	622.796629741	17.907354015
2	510346	730.528348663	107.731718922
2	551970	783.913080109	53.384731446
2	708276	982.671835603	198.758755494
2	872881	1190.452510686	207.780675083
2	993389	1341.296647645	150.844136959
2	998001	1347.073819207	5.777171562
2	1013359	1366.194702173	19.120882966
2	1149343	1533.870293783	167.67559161
2	1249704	1658.514508405	124.644214622
2	1274896	1689.69206605	31.177557645
2	1546055	2021.747200361	332.055134311
2	1602097	2090.545962592	68.798762231
2	1790433	2320.050631221	229.504668629
2	1849213	2391.056628117	71.005996896
2	1914424	2468.508995681	77.452367564
2	2008670	2579.843779034	111.334783353
2	2057045	2636.645023918	56.801244884
2	2080058	2664.029606629	27.384582711
2	2085928	2670.895392174	6.865785545
2	2232578	2841.326132797	170.430740623
2	2269603	2883.921418016	42.595285219
2	2379533	3009.904739196	125.98332118
2	2547243	3200.545541966	190.64080277
2	2987860	3696.613384305	496.067842339
2	2999039	3709.114772082	12.501387777
2	3013167	3724.706848768	15.592076686
2	3071291	3788.496081173	63.789232405
2	3346927	4089.329558832	300.833477659
2	3441958	4192.369453452	103.03989462
2	3533176	4290.917710072	98.54825662
2	3538546	4296.65379995	5.736089878
2	3774022	4535.751942815	239.098142865
2	3988697	4750.128587266	214.376644451
2	4197664	4957.601451653	207.472864387
2	4283048	5042.057519814	84.456068161
2	4554839	5309.435241328	267.377721514
2	4840276	5586.718088316	277.282846988
2	4992698	5733.842746441	147.124658125
2	5159430	5896.154971495	162.312225054
2	5550199	6273.770319147	377.615347652
2	5577444	6300.128047075	26.357727928
2	5601175	6322.92007118	22.792024105
2	5676953	6395.297584631	72.377513451
2	5816586	6528.052456236	132.754871605
2	5817344	6528.762697101	0.710240865
2	5829206	6539.756815407	10.994118306
2	5833976	6544.206681407	4.449866
2	5892411	6597.923101041	53.716419634
2	6105252	6792.471647562	194.548546521
2	6182457	6863.359079052	70.88743149
2	6205227	6884.150165858	20.791086806
2	6279572	6951.558661258	67.4084954
2	6357973	7022.582047515	71.023386257
2	6386965	7048.762181552	26.180134037
2	6473221	7126.320179271	77.557997719
2	6616330	7254.29497522	127.974795949
3	73189	150	102
3	109333	200	102
3	145555	250	102
3	182638	300	100
3	220621	350	99
3	258498	400	99
3	296221	450	97
3	333868	500	97
3	371570	550	96
3	409477	600	97
3	448156	650	99
3	486802	700	98
3	525548	750	98
3	564580	800	98
3	603918	850	98
3	643253	900	98
3	682705	950	98
3	722076	1000	98
3	761623	1050	98
3	801216	1100	98
3	840764	1150	97
3	880508	1200	98
3	920320	1250	96
3	960118	1300	93
3	1000379	1350	94
3	1040525	1400	95
3	1080838	1450	94
3	1121154	1500	93
3	1162370	1550	93
3	1202553	1600	93
3	1242778	1650	93
3	1283259	1700	94
3	1324233	1750	94
3	1365194	1800	94
3	1406065	1850	94
3	1446798	1900	92
3	1487536	1950	92
3	1528222	2000	92
3	1569035	2050	92
3	1609904	2100	93
3	1650914	2150	93
3	1691911	2200	92
3	1732908	2250	92
3	1773949	2300	92
3	1815271	2350	93
3	1856766	2400	94
3	1898758	2450	94
3	1940995	2500	94
3	1983277	2550	94
3	2025741	2600	94
3	2068259	2650	94
3	2111044	2700	95
3	2153997	2750	95
3	2197025	2800	95
3	2240093	2850	96
3	2283571	2900	96
3	2327330	2950	96
3	2370892	3000	95
3	2414782	3050	96
3	2458779	3100	96
3	2502691	3150	96
3	2546755	3200	96
3	2591131	3250	97
3	2635331	3300	96
3	2679553	3350	93
3	2724140	3400	93
3	2768655	3450	91
3	2813154	3500	91
3	2857613	3550	91
3	2902017	3600	90
3	2946434	3650	90
3	2990863	3700	91
3	3036175	3750	93
3	3081809	3800	94
3	3127620	3850	93
3	3173400	3900	93
3	3219181	3950	93
3	3265038	4000	93
3	3310899	4050	93
3	3356820	4100	94
3	3403000	4150	94
3	3448970	4200	92
3	3495244	4250	91
3	3541672	4300	93
3	3588973	4350	92
3	3636180	4400	91
3	3687938	4450	89
3	3738141	4500	89
3	3788282	4550	90
3	3838341	4600	90
3	3888409	4650	90
3	3938525	4700	90
3	3988584	4750	90
3	4039176	4800	88
3	4089419	4850	88
3	4139674	4900	88
3	4189918	4950	88
3	4240565	5000	89
3	4291151	5050	89
3	4342096	5100	89
3	4392851	5150	88
3	4443665	5200	87
3	4494390	5250	87
3	4545269	5300	87
3	4596586	5350	88
3	4648057	5400	88
3	4699520	5450	88
3	4750917	5500	88
3	4802388	5550	88
3	4853967	5600	89
3	4905820	5650	89
3	4957650	5700	89
3	5009469	5750	89
3	5061015	5800	87
3	5112267	5850	87
3	5163386	5900	88
3	5215211	5950	88
3	5267013	6000	88
3	5318709	6050	88
3	5370460	6100	88
3	5422273	6150	88
3	5473918	6200	87
3	5525682	6250	87
3	5577317	6300	86
3	5629442	6350	88
3	5681837	6400	89
3	5734457	6450	88
3	5787074	6500	88
3	5840356	6550	92
3	5894734	6600	93
3	5949372	6650	93
3	6004104	6700	93
3	6058768	6750	92
3	6113465	6800	91
3	6167921	6850	91
3	6222806	6900	93
3	6277763	6950	89
3	6332958	7000	88
3	6388322	7050	89
3	6444019	7100	88
3	6499757	7150	87
3	6555667	7200	87
3	6611549	7250	86
4	147199	252.340131552	252.340131552
4	154489	262.294315032	9.95418348
4	173983	289.171277136	26.876962104
4	274988	421.89176657	132.720489434
4	283143	432.70296378	10.81119721
4	353544	525.907154218	93.204190438
4	449526	651.797129731	125.889975513
4	504839	723.432101989	71.634972258
4	517391	739.547100444	16.114998455
4	709084	983.700897653	244.153797209
4	800186	1098.708976032	115.008078379
4	884055	1204.554411418	105.845435386
4	896702	1220.396201565	15.841790147
4	909584	1236.596721791	16.200520226
4	930611	1263.123426909	26.526705118
4	942391	1277.992371914	14.868945005
4	955422	1294.38361913	16.391247216
4	1047442	1408.51362685	114.13000772
4	1077446	1445.716549384	37.202922534
4	1117305	1495.23889125	49.522341866
4	1238520	1644.709259539	149.470368289
4	1422825	1870.530541176	225.821281637
4	1428289	1877.291455	6.760913824
4	1539341	2013.523155293	136.231700293
4	1650215	2149.183587883	135.66043259
4	1914432	2468.508995681	319.325407798
4	2009197	2580.408567577	111.899571896
4	2045580	2623.111156378	42.702588801
4	2090628	2676.324181042	53.213024664
4	2252942	2864.765052748	188.440871706
4	2325745	2948.266328652	83.501275904
4	2590893	3249.716299874	301.449971222
4	2647099	3313.278785485	63.562485611
4	2652001	3318.724648342	5.445862857
4	2653880	3320.87145555	2.146807208
4	2717201	3392.222298101	71.350842551
4	2753683	3433.174920393	40.952622292
4	2853850	3545.762355674	112.587435281
4	3091020	3810.037718528	264.275362854
4	3394450	4140.780256408	330.74253788
4	3422770	4171.49018066	30.709924252
4	3429109	4178.396789272	6.906608612
4	3441966	4192.369453452	13.97266418
4	3563440	4323.002762772	130.63330932
4	3621694	4384.642386988	61.639624216
4	3623589	4386.66203551	2.019648522
4	3650726	4414.381760693	27.719725183
4	4005251	4766.358948014	351.977187321
4	4016693	4777.643807974	11.28485996
4	4017711	4778.607860599	0.964052625
4	4237329	4996.800456643	218.192596044
4	4340055	5097.946262939	101.145806296
4	4404471	5161.324324044	63.378061105
4	4975755	5717.416253801	556.091929757
4	4996350	5737.3642148	19.947960999
4	5043008	5782.403273238	45.039058438
4	5441254	6168.330739699	385.927466461
4	5531170	6255.361969644	87.031229945
4	5536892	6260.861488089	5.499518445
4	5689047	6406.817579216	145.956091127
4	6028275	6722.044516722	315.226937506
4	6059071	6750.261964208	28.217447486
4	6096387	6784.402796644	34.140832436
4	6207085	6885.793425732	101.390629088
4	6219129	6896.693225497	10.899799765
4	6230482	6906.89336712	10.200141623
4	6236651	6912.465218199	5.571851079
4	6264232	6937.627101478	25.161883279
4	6281149	6953.028638751	15.401537273
4	6346285	7012.111357443	59.082718692
4	6413527	7072.622681719	60.511324276
4	6442999	7099.05673412	26.434052401
4	6482646	7134.72355749	35.66682337
4	6558665	7202.634673441	67.911115951
