version 2
run HTestKBRConf-0-20140120-18:52:32-13896
attr configname HTestKBRConf
attr datetime 20140120-18:52:32
attr experiment HTestKBRConf
attr inifile htopology.ini
attr iterationvars ""
attr iterationvars2 $repetition=0
attr measurement ""
attr network oversim.underlay.simpleunderlay.SimpleUnderlayNetwork
attr processid 13896
attr repetition 0
attr replication #0
attr resultdir results
attr runnumber 0
attr seedset 0

vector 1  SimpleUnderlayNetwork.globalObserver.globalStatistics  "GlobalNodeList: Number of nodes"  ETV
1	133	50	10
1	144	100	10
1	155	150	10
1	165	200	10
1	173	250	10
1	182	300	10
1	191	350	10
1	200	400	10
1	210	450	10
1	220	500	10
1	229	550	10
1	239	600	10
1	250	650	10
1	257	700	10
1	268	750	10
1	275	800	10
1	285	850	10
1	294	900	10
1	305	950	10
1	313	1000	10
1	323	1050	10
1	332	1100	10
1	342	1150	10
1	351	1200	10
1	361	1250	10
1	370	1300	10
1	380	1350	10
1	387	1400	10
1	397	1450	10
1	407	1500	10
1	418	1550	10
1	425	1600	10
1	434	1650	10
1	445	1700	10
1	455	1750	10
1	464	1800	10
1	473	1850	10
1	482	1900	10
1	491	1950	10
1	502	2000	10
1	510	2050	10
1	520	2100	10
1	530	2150	10
1	537	2200	10
1	546	2250	10
1	556	2300	10
1	567	2350	10
1	576	2400	10
1	586	2450	10
1	593	2500	10
1	601	2550	10
1	612	2600	10
1	623	2650	10
1	633	2700	10
1	642	2750	10
1	648	2800	10
1	659	2850	10
1	669	2900	10
1	680	2950	10
1	688	3000	10
1	695	3050	10
1	704	3100	10
1	714	3150	10
1	724	3200	10
1	735	3250	10
1	742	3300	10
