version 2
run HStreamingChurn-0-20140416-23:12:54-4960
attr configname HStreamingChurn
attr datetime 20140416-23:12:54
attr experiment HStreamingChurn
attr inifile htopology.ini
attr iterationvars ""
attr iterationvars2 $repetition=0
attr measurement ""
attr network oversim.underlay.simpleunderlay.SimpleUnderlayNetwork
attr processid 4960
attr repetition 0
attr replication #0
attr resultdir results
attr runnumber 0
attr seedset 0

vector 1  SimpleUnderlayNetwork.globalObserver.globalStatistics  "ParetoChurn: Time between deletes"  ETV
vector 2  SimpleUnderlayNetwork.globalObserver.globalStatistics  "GlobalNodeList: Number of nodes"  ETV
vector 3  SimpleUnderlayNetwork.globalObserver.globalStatistics  "ParetoChurn: Session Time"  ETV
vector 4  SimpleUnderlayNetwork.globalObserver.globalStatistics  "ParetoChurn: Time between creates"  ETV
1	689181	418.77285971	31.071722197
1	730194	431.730363688	12.957503978
1	755190	439.637621663	7.907257975
1	778486	446.89870578	7.261084117
1	787647	449.781382485	2.882676705
1	1051504	532.972991458	83.191608973
1	1077269	541.061611642	8.088620184
1	1281839	605.088978287	64.027366645
1	1418974	647.45524125	42.366262963
1	1517924	678.303499849	30.848258599
1	1532675	682.868051002	4.564551153
1	1568423	693.777377209	10.909326207
1	1615614	708.187032389	14.40965518
1	1673107	726.140683182	17.953650793
1	1721803	741.151998524	15.011315342
1	1748054	749.229732693	8.077734169
1	1839918	777.645657343	28.41592465
1	1907481	798.52820577	20.882548427
1	1914362	800.677319376	2.149113606
1	1927905	804.837931265	4.160611889
1	2187173	884.33419389	79.496262625
1	2189337	885.064977371	0.730783481
1	2329284	928.203323952	43.138346581
1	2341482	931.876675958	3.673352006
1	2398646	949.281567545	17.404891587
1	2523375	987.466714447	38.185146902
1	2561181	998.85668794	11.389973493
1	2579931	1004.528495265	5.671807325
1	2597987	1010.240446755	5.71195149
1	2618972	1016.608113262	6.367666507
1	2646727	1025.143110134	8.534996872
1	2721047	1047.118559343	21.975449209
1	2756713	1057.663177274	10.544617931
1	2784073	1065.666830411	8.003653137
1	2970818	1120.984696904	55.317866493
1	3115126	1163.409765227	42.425068323
1	3123895	1166.047523234	2.637758007
1	3236733	1198.856777317	32.809254083
1	3254471	1204.06665227	5.209874953
1	3369678	1237.618484095	33.551831825
1	3552896	1291.09826756	53.479783465
1	3780274	1357.443699667	66.345432107
1	3813107	1366.777973111	9.334273444
1	3884567	1387.769827968	20.991854857
1	4287987	1504.320317469	116.550489501
1	4704976	1624.27936156	119.959044091
1	4980127	1702.654206505	78.374844945
1	5266363	1783.159713705	80.5055072
1	5266807	1783.293964188	0.134250483
1	5268354	1783.690629285	0.396665097
1	5274712	1785.404843784	1.714214499
1	5301229	1792.766518643	7.361674859
1	5475638	1841.884100163	49.11758152
1	5537888	1858.953352034	17.069251871
1	5716326	1908.434058874	49.48070684
1	5750699	1917.856926558	9.422867684
1	5758383	1919.944471231	2.087544673
1	5878870	1953.443342613	33.498871382
1	5895378	1958.001674962	4.558332349
1	5918537	1964.283629981	6.281955019
1	5933890	1968.453740772	4.170110791
1	6024331	1993.626381818	25.172641046
1	6353472	2084.017143105	90.390761287
1	6396525	2095.541142309	11.523999204
1	6569596	2143.083127584	47.541985275
1	6713635	2182.122660929	39.039533345
1	6857119	2221.002067993	38.879407064
1	6922863	2238.909291706	17.907223713
1	6928686	2240.485850425	1.576558719
1	7106522	2288.678294507	48.192444082
1	7117812	2291.732308238	3.054013731
1	7167499	2304.997333929	13.265025691
1	7261985	2330.198727886	25.201393957
1	7435018	2376.060605071	45.861877185
1	7470543	2385.593004168	9.532399097
1	7561919	2409.494490227	23.901486059
1	7729633	2453.611132828	44.116642601
1	7794575	2470.688835252	17.077702424
1	7871288	2490.82325405	20.134418798
1	7965982	2515.313108492	24.489854442
1	8138869	2560.438628617	45.125520125
1	8319663	2607.237870664	46.799242047
1	8355105	2616.525991058	9.288120394
1	8380280	2623.022994722	6.497003664
1	8736238	2714.566247219	91.543252497
1	8820055	2736.098155249	21.53190803
1	9212950	2837.055457379	100.95730213
1	9225712	2840.29558022	3.240122841
1	9317597	2863.976180939	23.680600719
1	9435380	2893.972513502	29.996332563
1	9456156	2899.337390025	5.364876523
1	9583836	2932.054947866	32.717557841
1	9592616	2934.291327669	2.236379803
1	9613844	2939.54644205	5.255114381
1	9625061	2942.332556758	2.786114708
1	9642853	2946.878065564	4.545508806
1	9772558	2979.956414925	33.078349361
1	10028253	3044.482591754	64.526176829
1	10045531	3048.941885204	4.45929345
1	10179440	3082.413813054	33.47192785
1	10347365	3124.44589337	42.032080316
1	10420391	3142.730745971	18.284852601
1	10457946	3152.04829264	9.317546669
1	10460799	3152.772035426	0.723742786
1	10507411	3164.572033438	11.799998012
1	10793940	3236.186707434	71.614673996
1	11148071	3323.841363087	87.654655653
1	11182881	3332.375875289	8.534512202
1	11298332	3361.050206507	28.674331218
1	11609672	3437.363990522	76.313784015
1	11708923	3461.861478782	24.49748826
1	11802591	3484.811890155	22.950411373
1	12159764	3571.467196724	86.655306569
1	12250752	3593.431684061	21.964487337
1	12344353	3615.951332659	22.519648598
1	12395626	3628.348625909	12.39729325
1	12484063	3649.613069093	21.264443184
1	12713486	3704.078814917	54.465745824
1	12720475	3705.754524446	1.675709529
1	12749056	3712.550472867	6.795948421
1	12792926	3722.968293676	10.417820809
1	12897086	3747.504927924	24.536634248
1	13124526	3801.206835684	53.70190776
1	13248413	3830.502024053	29.295188369
1	13371836	3859.545197569	29.043173516
1	13400828	3866.296796776	6.751599207
1	13489080	3887.222680687	20.925883911
1	13618700	3917.724322058	30.501641371
1	13657599	3926.819407442	9.095085384
1	13730226	3943.992146738	17.172739296
1	13882666	3979.812225817	35.820079079
1	13959351	3997.834104773	18.021878956
1	14058647	4020.978743958	23.144639185
1	14072581	4024.236386565	3.257642607
1	14300617	4077.179106692	52.942720127
1	14411388	4102.9502402	25.771133508
1	14495786	4122.488203965	19.537963765
1	14544874	4133.910090327	11.421886362
1	14641617	4156.600449785	22.690359458
1	14687628	4167.30582035	10.705370565
1	15040454	4249.997403436	82.691583086
1	15053151	4252.983296494	2.985893058
1	15125161	4269.893170648	16.909874154
1	15187040	4284.381683276	14.488512628
1	15205409	4288.63125631	4.249573034
1	15331783	4318.09805864	29.46680233
1	15336663	4319.22918313	1.13112449
1	15423504	4339.798822083	20.569638953
1	15605917	4381.349273883	41.5504518
1	15727457	4408.782236314	27.432962431
1	15815160	4428.407248362	19.625012048
1	15934908	4455.343416182	26.93616782
1	15957568	4460.436972107	5.093555925
1	16178589	4509.742667546	49.305695439
1	16202111	4515.022900618	5.280233072
1	16257409	4527.348333214	12.325432596
1	16615751	4606.449659706	79.101326492
1	16784724	4643.486952911	37.037293205
1	16838300	4655.096780442	11.609827531
1	17135531	4719.899513686	64.802733244
1	17284015	4752.17614228	32.276628594
1	17285845	4752.553910824	0.377768544
1	17373830	4771.665399261	19.111488437
1	17447742	4787.7326856	16.067286339
1	17509536	4801.052602758	13.319917158
1	17609012	4822.670587829	21.617985071
1	18145967	4938.029260372	115.358672543
1	18247068	4959.612049986	21.582789614
1	18426925	4998.123868596	38.51181861
1	18428422	4998.458694605	0.334826009
1	18472144	5007.757319171	9.298624566
1	18489737	5011.517199663	3.759880492
1	18537685	5021.704269379	10.187069716
1	18563427	5027.155418828	5.451149449
1	18657241	5047.249261276	20.093842448
1	18668313	5049.674738232	2.425476956
1	18833007	5084.730172722	35.05543449
1	19149097	5152.097277542	67.36710482
1	19551688	5237.460366111	85.363088569
1	19564602	5240.19645953	2.736093419
1	19958308	5323.383521103	83.187061573
1	20283260	5395.835567185	72.452046082
1	20294230	5398.371809906	2.536242721
1	20433620	5430.806851208	32.435041302
1	20456277	5436.054465104	5.247613896
1	20542397	5456.025769664	19.97130456
1	20602724	5469.900321308	13.874551644
1	20694618	5491.201013291	21.300691983
1	20802024	5515.838851567	24.637838276
1	21000220	5561.435703836	45.596852269
1	21024280	5566.984300631	5.548596795
1	21038454	5570.191004445	3.206703814
1	21106204	5585.97074549	15.779741045
1	21257063	5620.689154739	34.718409249
1	21760462	5735.740382821	115.051228082
1	21851875	5756.492392014	20.752009193
1	22204999	5836.343826143	79.851434129
1	22225978	5841.155032033	4.81120589
1	22415992	5884.016768829	42.861736796
1	22698743	5947.679817019	63.66304819
1	22708147	5949.726651132	2.046834113
1	22757497	5960.774290123	11.047638991
1	22858637	5983.611892322	22.837602199
1	22885479	5989.581333652	5.96944133
1	22999369	6015.212494015	25.631160363
1	23005403	6016.524662465	1.31216845
1	23094133	6036.607518961	20.082856496
1	23107413	6039.591452479	2.983933518
1	23145946	6048.274850555	8.683398076
1	23176912	6055.321746059	7.046895504
1	23225023	6066.227801625	10.906055566
1	23280838	6078.891729431	12.663927806
1	23316957	6087.187059923	8.295330492
1	23394463	6104.70419428	17.517134357
1	23433237	6113.462324446	8.758130166
1	23500006	6128.546792831	15.084468385
1	23825883	6202.089113536	73.542320705
1	24422828	6336.405377691	134.316264155
1	24473241	6347.675869589	11.270491898
1	24592115	6374.621915174	26.946045585
1	24712500	6402.022872521	27.400957347
1	24735607	6407.534652446	5.511779925
1	24890611	6446.409748159	38.875095713
1	25116796	6506.563474992	60.153726833
1	25121452	6507.879611806	1.316136814
1	25131091	6510.465224376	2.58561257
1	25272157	6548.177002217	37.711777841
1	25303290	6556.62637014	8.449367923
1	25330032	6563.686615627	7.060245487
1	25551273	6622.21733279	58.530717163
1	25771527	6680.197388589	57.980055799
1	25890680	6711.434335716	31.236947127
1	25917788	6718.467191497	7.032855781
1	26043083	6751.405252283	32.938060786
1	26051756	6753.616334696	2.211082413
1	26081310	6761.372251773	7.755917077
1	26125045	6772.801027877	11.428776104
1	26230161	6800.212603335	27.411575458
1	26324879	6824.905904563	24.693301228
1	26407391	6846.304054619	21.398150056
1	26425908	6851.036778393	4.732723774
1	26595510	6894.97164111	43.934862717
1	27009156	7001.906177389	106.934536279
1	27167349	7042.638743073	40.732565684
1	27514405	7131.629927217	88.991184144
1	27850616	7217.88166105	86.251733833
1	27954955	7244.603990035	26.722328985
1	28101714	7282.023918662	37.419928627
1	28108687	7283.799368043	1.775449381
1	28127276	7288.608928542	4.809560499
1	28295941	7331.558132103	42.949203561
1	28346772	7344.432924403	12.8747923
1	28361801	7348.287993783	3.85506938
1	28434865	7366.874290562	18.586296779
1	28444503	7369.335795396	2.461504834
1	28585350	7405.157097618	35.821302222
1	28785721	7456.1837003	51.026602682
1	28957108	7499.683715164	43.500014864
1	28970382	7503.082670623	3.398955459
1	28998291	7510.239991014	7.157320391
1	29013704	7514.175619372	3.935628358
1	29251178	7574.820022158	60.644402786
2	788269	450	397
2	946311	500	395
2	1105423	550	396
2	1265620	600	396
2	1426765	650	398
2	1588678	700	399
2	1750486	750	396
2	1912240	800	394
2	2074649	850	393
2	2237444	900	393
2	2400989	950	392
2	2564837	1000	391
2	2730557	1050	386
2	2899284	1100	386
2	3069478	1150	388
2	3240550	1200	389
2	3412716	1250	387
2	3583606	1300	387
2	3754343	1350	386
2	3926427	1400	388
2	4099373	1450	389
2	4272974	1500	390
2	4447088	1550	389
2	4619910	1600	391
2	4794592	1650	393
2	4970669	1700	395
2	5148260	1750	397
2	5326641	1800	395
2	5505334	1850	397
2	5685197	1900	398
2	5866640	1950	397
2	6047548	2000	393
2	6229476	2050	395
2	6412962	2100	395
2	6595995	2150	397
2	6779060	2200	395
2	6963115	2250	396
2	7149051	2300	399
2	7336699	2350	396
2	7526254	2400	399
2	7715104	2450	398
2	7906536	2500	397
2	8098675	2550	396
2	8291594	2600	396
2	8485884	2650	397
2	8679750	2700	398
2	8873653	2750	400
2	9068664	2800	399
2	9263653	2850	400
2	9458563	2900	399
2	9655280	2950	398
2	9851799	3000	399
2	10049899	3050	404
2	10249675	3100	402
2	10449827	3150	402
2	10649556	3200	400
2	10850051	3250	403
2	11051175	3300	403
2	11253894	3350	404
2	11457000	3400	403
2	11660548	3450	405
2	11866138	3500	404
2	12071227	3550	408
2	12277702	3600	408
2	12485768	3650	410
2	12696460	3700	414
2	12907081	3750	410
2	13119093	3800	411
2	13330884	3850	410
2	13543208	3900	408
2	13755895	3950	407
2	13969004	4000	408
2	14183987	4050	408
2	14399071	4100	408
2	14613376	4150	407
2	14826735	4200	406
2	15040468	4250	407
2	15253610	4300	405
2	15467580	4350	404
2	15688259	4400	404
2	15911118	4450	405
2	16135140	4500	405
2	16359896	4550	407
2	16586666	4600	411
2	16814707	4650	413
2	17043496	4700	413
2	17273552	4750	414
2	17504788	4800	414
2	17736031	4850	413
2	17968811	4900	415
2	18202115	4950	416
2	18435722	5000	415
2	18669838	5050	410
2	18904368	5100	408
2	19139528	5150	410
2	19375270	5200	410
2	19611260	5250	411
2	19847114	5300	410
2	20081094	5350	410
2	20301223	5400	413
2	20516746	5450	413
2	20733033	5500	413
2	20950042	5550	412
2	21166945	5600	412
2	21384834	5650	414
2	21603529	5700	416
2	21823039	5750	417
2	22043276	5800	420
2	22264762	5850	420
2	22487230	5900	418
2	22709365	5950	418
2	22931980	6000	416
2	23153542	6050	414
2	23373862	6100	411
2	23594404	6150	408
2	23816726	6200	409
2	24038538	6250	409
2	24260946	6300	410
2	24483830	6350	411
2	24703807	6400	410
2	24904541	6450	408
2	25092026	6500	410
2	25278974	6550	411
2	25467170	6600	412
2	25656583	6650	414
2	25847426	6700	415
2	26037963	6750	413
2	26229335	6800	413
2	26421723	6850	413
2	26614734	6900	412
2	26808450	6950	412
2	27001896	7000	414
2	27195896	7050	415
2	27390768	7100	416
2	27585539	7150	418
2	27781008	7200	419
2	27976247	7250	420
2	28172320	7300	419
2	28368450	7350	419
2	28564957	7400	417
2	28761391	7450	416
2	28958411	7500	415
2	29154219	7550	411
3	862780	473.612076911	6302.7601748625
3	1019958	523.021095832	188368.3361411
3	1020604	523.192573427	423.68410253122
3	1108095	550.805514231	262.72269153956
3	1273942	602.622678766	2736.2186843211
3	1302192	611.371629837	15339.221985476
3	1335369	621.738734118	1769.3218709533
3	1444514	655.565998633	1142.5937150722
3	1502412	673.544690676	632.55357688455
3	1508093	675.247072418	289.03449512722
3	1576928	696.34643042	8413.8566630638
3	1856420	782.786035358	2166.505292312
3	1977230	819.827371655	3850.2694087875
3	2069243	848.313981518	959.45253712573
3	2214609	892.90884112	50.294482832368
3	2329220	928.192684677	945.76066735782
3	2366705	939.562560352	133.10061692293
3	2728317	1049.2989293	923.70274566241
3	2784065	1065.666830411	0.88896751272839
3	2822532	1077.169377153	1033.371765156
3	2834819	1080.908111929	370665.31538802
3	2914135	1104.436995277	24703.569567946
3	2959190	1117.57270149	8053.9700885683
3	2970810	1120.984696904	8.3904950416548
3	3123887	1166.047523234	8.8088712600779
3	3159349	1176.273056971	196.17064269614
3	3175892	1181.047067218	4849.1654267979
3	3534350	1285.758782446	1020.9735257927
3	3770333	1354.642110291	15400.746028326
3	3792311	1360.910551255	437.38341293322
3	3893764	1390.376610345	2252.9720155642
3	3920914	1398.322586561	3045.0846618013
3	3981252	1415.898082076	8369.5237269953
3	4005020	1422.649893981	377.75494980369
3	4101068	1450.412823787	6733.9988295108
3	4561255	1583.164082644	3998.8202179877
3	4574439	1586.999613822	3864.054851283
3	4626213	1601.833390115	2535.654813851
3	4710607	1625.895490474	7202.2210917244
3	4720644	1628.837068591	339.60627402212
3	4820329	1657.374225821	27639.142985119
3	4828434	1659.679579928	2214.8656176417
3	5006012	1710.019718214	7616.707944529
3	5011621	1711.65047713	221.20644942815
3	5031422	1717.191300635	707.30318959234
3	5180663	1759.151468476	3876.5376862631
3	5380963	1815.231728565	822.7912661573
3	5446775	1833.852314496	24975.886221395
3	5453942	1835.850847106	99.093624125663
3	5504135	1849.675436754	1814.9376323397
3	5575622	1869.593412293	324462.29355307
3	5607810	1878.560183149	220.45695995696
3	5659800	1893.025975526	40259.598658695
3	5697414	1903.31051363	6071.9223468084
3	5758435	1919.954573951	4161.2732276741
3	6097183	2013.830136399	491.99311765142
3	6152220	2028.824689214	823.23076816521
3	6152239	2028.824945366	2153.4808749842
3	6245693	2054.445354482	50989.107417325
3	6435495	2106.311943318	3307.0598665887
3	6586230	2147.497787083	2117.4996163535
3	6588376	2148.07277514	16855.350906337
3	6827942	2213.150682538	23964.386169569
3	6928678	2240.485850425	3.3591890082626
3	6967512	2251.192117358	105924.89975278
3	7077820	2280.833502908	12037.477854229
3	7078522	2280.989499788	2486.5644110367
3	7092724	2284.801667503	26756.011978586
3	7108250	2289.13464257	6190.4615106291
3	7155759	2301.835054132	228.47805436058
3	7375439	2360.201478884	53335.279045838
3	7423799	2373.11585656	4393.2893957239
3	7478611	2387.754156644	1880.2291398507
3	7500660	2393.284979157	1539.4393429015
3	7698105	2445.502430886	1370.7044047986
3	7757539	2460.887449192	2949.9481179932
3	8013393	2527.61803195	8408.675750235
3	8173568	2569.615170698	598.15686472822
3	8315173	2606.073399637	3445.534119324
3	8331892	2610.486511068	25902.804007039
3	8384278	2624.072558199	4796.0845394199
3	8409686	2630.758459821	21741.355310726
3	8507927	2655.891366083	11867.457626194
3	8721975	2710.729570927	198.24294257509
3	8830598	2738.876197792	869.55548626949
3	8849578	2743.765433435	2292.9388359443
3	9205900	2835.126631698	416.06007573648
3	9314578	2863.182494044	15.793686895379
3	9377957	2879.320816246	6515.8893053196
3	9487432	2907.242119035	152.24047271932
3	9500655	2910.694691253	1513.0875450611
3	9553779	2924.314699578	16312.705676279
3	9675239	2955.080900467	521.78057831521
3	9677493	2955.671316745	9304.1979153638
3	9689754	2958.94014243	180.5057509402
3	9766698	2978.4041714	3836.8084319357
3	9844147	2998.132735751	3735.3344557463
3	9868347	3004.143851438	55191.449108362
3	9888921	3009.274418568	3852.0296360516
3	10007360	3039.188877075	3350.4330380995
3	10011096	3040.209439838	2465.9915734538
3	10032332	3045.510762575	20698.382160647
3	10172163	3080.628359188	8810.2827529779
3	10295858	3111.710023676	650.7949042486
3	10514980	3166.395170347	1600.7809719336
3	10597503	3187.105782984	508907.94481437
3	10728235	3219.726079796	232.63791072655
3	10762686	3228.31444616	4996.1633934128
3	10828033	3244.516895369	16456.227937172
3	10930998	3270.069768921	6951.01674854
3	11187125	3333.417190831	1196.605709787
3	11200347	3336.753125663	382.32568925442
3	11220634	3341.760785876	38641.990046951
3	11577956	3429.703955276	156.76324144894
3	11610003	3437.444060494	2461.5727083352
3	11686361	3456.23003759	1798.9664219406
3	11722271	3465.028313107	3322.772714771
3	11884436	3504.542042669	233.4262510073
3	11919901	3513.219100967	5934.5993040004
3	12051070	3545.286892619	1707.173473492
3	12053398	3545.822057243	85.129275416931
3	12115960	3560.772802008	10711.444148556
3	12290483	3603.176443026	4227.0845881712
3	12296759	3604.713480136	13626.827696127
3	12423935	3635.096189498	22165.673484946
3	12457861	3643.28087217	1887.5579793972
3	12461601	3644.205462048	297.61394539449
3	12499273	3653.235351289	65387.114139625
3	12504325	3654.436556108	73.113916759893
3	12536689	3662.193578547	670.90448009377
3	12594827	3675.951808003	44.802716443182
3	12631343	3684.471910128	161.03011392596
3	12984322	3768.187032192	323.99207450036
3	13048331	3783.414190991	9138.2057144875
3	13144457	3805.922656755	8043.4253169421
3	13546536	3900.818387884	402.81286842601
3	13734209	3944.964757132	58754.45340961
3	13831656	3967.961813321	203.63863646477
3	13836715	3969.125375629	105788.55565699
3	13909588	3986.066227122	26.767877651363
3	14019962	4011.88169381	512.86097373682
3	14039729	4016.54177473	338.25704735305
3	14139751	4039.796491202	1127.30078634
3	14334202	4085.041353745	63.868736582539
3	14484092	4119.877565223	893.58112938244
3	14553591	4135.936776688	701.73381114145
3	14757372	4183.729264786	291.70770732176
3	14869187	4209.961016674	1933.5857761571
3	15187712	4284.548298832	4150.6147848284
3	15189829	4285.037794125	777.21146715194
3	15338376	4319.681375583	4876.9646447398
3	15354151	4323.463669218	37986.597747652
3	15492854	4355.80471047	40.544563413354
3	15502842	4358.131035241	7568.6145049398
3	15716925	4406.400179378	15391.593144573
3	15730086	4409.338411343	406.71419141576
3	15763561	4416.770846644	682.95932607832
3	15936724	4455.72103294	3612.7016010743
3	16096613	4491.419945846	50.928387368487
3	16217179	4518.415508	216.48400568695
3	16261304	4528.181162284	15092.19060462
3	16295341	4535.696824119	1566.4902358041
3	16316834	4540.511432877	486.00576678675
3	16320379	4541.279433175	1035.1562706614
3	16447634	4569.496989829	1500.8247562306
3	16483650	4577.492325134	1173.2480576872
3	16495889	4580.153153727	12959.040714662
3	16581094	4598.775988088	24358.069436398
3	16631980	4609.969302559	1388.6425897637
3	16701563	4625.279847943	20621.346255063
3	16710593	4627.321048352	7031.2251590733
3	16937163	4676.73395948	346.02335969167
3	16980296	4686.215758222	2153.6901463411
3	17058120	4703.14117611	7194.4073237351
3	17157294	4724.629753196	11734.987239449
3	17378560	4772.702481712	102320.34983598
3	17494285	4797.819319221	10082.104517999
3	17498980	4798.798665086	214.32520351072
3	17545935	4809.027609771	661.99815989336
3	17585222	4817.485000093	5601.1595220935
3	17875458	4880.001006773	1082.6788102469
3	17882650	4881.557525134	4393.6496103516
3	18145959	4938.029260372	2.9272844848733
3	18353913	4982.409477498	502.49084381076
3	18445842	5002.165713826	9008.8861754453
3	18883952	5095.658897041	3198.5657191452
3	18995298	5119.39681467	3590.8337239568
3	19061811	5133.509923294	10298.560400581
3	19188471	5160.391588767	39396.306166747
3	19407958	5206.95031799	238.85653321894
3	19701927	5269.17145684	38737.047209706
3	20026952	5337.967983421	4010.3651217855
3	20105896	5355.41961243	3801.9586697515
3	20196128	5375.503090593	1261.7142421977
3	20214908	5379.919324209	43511.620581536
3	20340224	5409.020335939	11502.387499455
3	20479745	5441.459886649	4731.7235878114
3	20503711	5447.008712245	30320.592682722
3	20588947	5466.748708564	5100.7187755832
3	20679493	5487.661479419	3484.4725529948
3	20732028	5499.772139125	1268.8441955715
3	20749220	5503.640710676	71884.204890241
3	21003598	5562.208312195	343543.19769576
3	21098718	5584.212020236	632.87709330063
3	21136201	5592.852598817	22433.290371336
3	21226194	5613.604027309	1732.9541047941
3	21294024	5629.18109913	16221.497195172
3	21323674	5635.938794696	942.74782093137
3	21370595	5646.769043812	472.93515046815
3	21481839	5672.308284573	99.184107441996
3	21522448	5681.518265722	1622.0906628205
3	21637041	5707.600858167	257.12579296509
3	21929402	5774.124810076	12156.96387597
3	21934177	5775.199083174	80.955948859461
3	21937851	5776.043824115	4328.6559601508
3	21938136	5776.102035743	3347.5893867062
3	22036846	5798.520514935	69211.677597536
3	22335648	5865.965358857	66785.994035436
3	22785178	5967.128176857	1392.3047475468
3	22819397	5974.782957234	376.6224204579
3	22946233	6003.227029966	10916.557791887
3	23235161	6068.550814183	25.340915248411
3	23252618	6072.498656394	19527.961166417
3	23305351	6084.471769017	825.49987209395
3	23531009	6135.561713902	436.06465623819
3	23733233	6181.237670691	15316.843460825
3	23997612	6240.867600861	29476.941165114
3	24057762	6254.359285736	4292.7767067968
3	24423266	6336.51670425	124.89304390997
3	24508914	6355.625592908	90852.480338219
3	24601014	6376.532902351	145.03057264168
3	24925626	6455.563025728	8558.4089226325
3	24999807	6475.269545746	1638.4224183258
3	25084708	6498.048759931	29883.281275883
3	25123677	6508.452158212	1709.2608772614
3	25131287	6510.522985159	184.6744034308
3	25148492	6515.202027863	1492.2041794921
3	25245715	6541.136645299	475.76953209066
3	25317732	6560.369703385	166.06463233139
3	25328384	6563.203881357	2197.4156592967
3	25373138	6575.127164147	73520.442154822
3	25419059	6587.308413587	1937.6667952004
3	25505357	6610.034333903	1206.7169263303
3	25594740	6633.730484833	4056.6034278917
3	25615131	6639.053913935	659.74545410878
3	25753993	6675.530264789	1471.860404555
3	25818743	6692.495968615	251072.86786238
3	26042100	6751.08827724	4268.7134687429
3	26087795	6763.024664908	3640.0802566116
3	26098670	6765.86425537	179693.21926061
3	26186369	6788.817270105	593.05702045765
3	26343973	6829.848287624	946.76416885886
3	26394654	6842.985091776	23.05168661713
3	26438088	6854.217644953	1472.1350603584
3	26690944	6919.65566087	443.63233291379
3	26825503	6954.467124325	18235.13838999
3	26900340	6973.756359339	6108.1985698187
3	27153966	7039.226267249	3994.200671714
3	27155501	7039.622570366	18.016172707551
3	27206915	7052.81806002	11998.003064417
3	27278557	7071.202005335	6237.7298963064
3	27476369	7121.987005652	18070.813724863
3	27477831	7122.35386325	110.52779780072
3	27514722	7131.731715775	13311.219177831
3	27626971	7160.611019924	18091.655400527
3	27919434	7235.467163863	354.35285829575
3	27921992	7236.102704972	289.13728604268
3	27994150	7254.525356271	6635.3705466223
3	28092221	7279.67755348	4313.2399157645
3	28198771	7306.830858659	207.85285650596
3	28367371	7349.752837831	369.4216899538
3	28410461	7360.648275082	10139.453585202
3	28552374	7396.865615821	920.85742178639
3	29260397	7577.190893452	221.54879957591
3	29296972	7586.388431795	7940.5060161226
4	862780	473.612076911	75.144915725
4	1019958	523.021095832	49.409018921
4	1020604	523.192573427	0.171477595
4	1108095	550.805514231	27.612940804
4	1273942	602.622678766	51.817164535
4	1302192	611.371629837	8.748951071
4	1335369	621.738734118	10.367104281
4	1444514	655.565998633	33.827264515
4	1502412	673.544690676	17.978692043
4	1508093	675.247072418	1.702381742
4	1576928	696.34643042	21.099358002
4	1856420	782.786035358	86.439604938
4	1977230	819.827371655	37.041336297
4	2069243	848.313981518	28.486609863
4	2214609	892.90884112	44.594859602
4	2329220	928.192684677	35.283843557
4	2366705	939.562560352	11.369875675
4	2728317	1049.2989293	109.736368948
4	2784065	1065.666830411	16.367901111
4	2822532	1077.169377153	11.502546742
4	2834819	1080.908111929	3.738734776
4	2914135	1104.436995277	23.528883348
4	2959190	1117.57270149	13.135706213
4	2970810	1120.984696904	3.411995414
4	3123887	1166.047523234	45.06282633
4	3159349	1176.273056971	10.225533737
4	3175892	1181.047067218	4.774010247
4	3534350	1285.758782446	104.711715228
4	3770333	1354.642110291	68.883327845
4	3792311	1360.910551255	6.268440964
4	3893764	1390.376610345	29.46605909
4	3920914	1398.322586561	7.945976216
4	3981252	1415.898082076	17.575495515
4	4005020	1422.649893981	6.751811905
4	4101068	1450.412823787	27.762929806
4	4561255	1583.164082644	132.751258857
4	4574439	1586.999613822	3.835531178
4	4626213	1601.833390115	14.833776293
4	4710607	1625.895490474	24.062100359
4	4720644	1628.837068591	2.941578117
4	4820329	1657.374225821	28.53715723
4	4828434	1659.679579928	2.305354107
4	5006012	1710.019718214	50.340138286
4	5011621	1711.65047713	1.630758916
4	5031422	1717.191300635	5.540823505
4	5180663	1759.151468476	41.960167841
4	5380963	1815.231728565	56.080260089
4	5446775	1833.852314496	18.620585931
4	5453942	1835.850847106	1.99853261
4	5504135	1849.675436754	13.824589648
4	5575622	1869.593412293	19.917975539
4	5607810	1878.560183149	8.966770856
4	5659800	1893.025975526	14.465792377
4	5697414	1903.31051363	10.284538104
4	5758435	1919.954573951	16.644060321
4	6097183	2013.830136399	93.875562448
4	6152220	2028.824689214	14.994552815
4	6152239	2028.824945366	0.000256152
4	6245693	2054.445354482	25.620409116
4	6435495	2106.311943318	51.866588836
4	6586230	2147.497787083	41.185843765
4	6588376	2148.07277514	0.574988057
4	6827942	2213.150682538	65.077907398
4	6928678	2240.485850425	27.335167887
4	6967512	2251.192117358	10.706266933
4	7077820	2280.833502908	29.64138555
4	7078522	2280.989499788	0.15599688
4	7092724	2284.801667503	3.812167715
4	7108250	2289.13464257	4.332975067
4	7155759	2301.835054132	12.700411562
4	7375439	2360.201478884	58.366424752
4	7423799	2373.11585656	12.914377676
4	7478611	2387.754156644	14.638300084
4	7500660	2393.284979157	5.530822513
4	7698105	2445.502430886	52.217451729
4	7757539	2460.887449192	15.385018306
4	8013393	2527.61803195	66.730582758
4	8173568	2569.615170698	41.997138748
4	8315173	2606.073399637	36.458228939
4	8331892	2610.486511068	4.413111431
4	8384278	2624.072558199	13.586047131
4	8409686	2630.758459821	6.685901622
4	8507927	2655.891366083	25.132906262
4	8721975	2710.729570927	54.838204844
4	8830598	2738.876197792	28.146626865
4	8849578	2743.765433435	4.889235643
4	9205900	2835.126631698	91.361198263
4	9314578	2863.182494044	28.055862346
4	9377957	2879.320816246	16.138322202
4	9487432	2907.242119035	27.921302789
4	9500655	2910.694691253	3.452572218
4	9553779	2924.314699578	13.620008325
4	9675239	2955.080900467	30.766200889
4	9677493	2955.671316745	0.590416278
4	9689754	2958.94014243	3.268825685
4	9766698	2978.4041714	19.46402897
4	9844147	2998.132735751	19.728564351
4	9868347	3004.143851438	6.011115687
4	9888921	3009.274418568	5.13056713
4	10007360	3039.188877075	29.914458507
4	10011096	3040.209439838	1.020562763
4	10032332	3045.510762575	5.301322737
4	10172163	3080.628359188	35.117596613
4	10295858	3111.710023676	31.081664488
4	10514980	3166.395170347	54.685146671
4	10597503	3187.105782984	20.710612637
4	10728235	3219.726079796	32.620296812
4	10762686	3228.31444616	8.588366364
4	10828033	3244.516895369	16.202449209
4	10930998	3270.069768921	25.552873552
4	11187125	3333.417190831	63.34742191
4	11200347	3336.753125663	3.335934832
4	11220634	3341.760785876	5.007660213
4	11577956	3429.703955276	87.9431694
4	11610003	3437.444060494	7.740105218
4	11686361	3456.23003759	18.785977096
4	11722271	3465.028313107	8.798275517
4	11884436	3504.542042669	39.513729562
4	11919901	3513.219100967	8.677058298
4	12051070	3545.286892619	32.067791652
4	12053398	3545.822057243	0.535164624
4	12115960	3560.772802008	14.950744765
4	12290483	3603.176443026	42.403641018
4	12296759	3604.713480136	1.53703711
4	12423935	3635.096189498	30.382709362
4	12457861	3643.28087217	8.184682672
4	12461601	3644.205462048	0.924589878
4	12499273	3653.235351289	9.029889241
4	12504325	3654.436556108	1.201204819
4	12536689	3662.193578547	7.757022439
4	12594827	3675.951808003	13.758229456
4	12631343	3684.471910128	8.520102125
4	12984322	3768.187032192	83.715122064
4	13048331	3783.414190991	15.227158799