version 2
run HStreamingChurn-0-20140327-23:06:21-10408
attr configname HStreamingChurn
attr datetime 20140327-23:06:21
attr experiment HStreamingChurn
attr inifile htopology.ini
attr iterationvars ""
attr iterationvars2 $repetition=0
attr measurement ""
attr network oversim.underlay.simpleunderlay.SimpleUnderlayNetwork
attr processid 10408
attr repetition 0
attr replication #0
attr resultdir results
attr runnumber 0
attr seedset 0

vector 1  SimpleUnderlayNetwork.globalObserver.globalStatistics  "GlobalNodeList: Number of nodes"  ETV
1	63068	150	101
1	93792	200	101
1	124504	250	101
1	155233	300	101
1	186065	350	101
1	216884	400	101
1	247583	450	101
1	278233	500	101
1	308967	550	101
1	339746	600	101
1	370589	650	101
1	401330	700	101
1	432026	750	101
1	462739	800	101
1	493464	850	101
1	524247	900	101
1	555070	950	101
1	585834	1000	101
1	616490	1050	101
1	647250	1100	101
1	677936	1150	101
1	708756	1200	101
1	739571	1250	101
1	770292	1300	101
1	800980	1350	101
1	831744	1400	101
1	862414	1450	101
1	893268	1500	101
1	924061	1550	101
1	954760	1600	101
1	985483	1650	101
1	1016220	1700	101
1	1046932	1750	101
1	1077743	1800	101
1	1108514	1850	101
1	1139222	1900	101
1	1169949	1950	101
1	1200686	2000	101
1	1231433	2050	101
1	1262243	2100	101
1	1293008	2150	101
1	1323695	2200	101
1	1354470	2250	101
1	1385151	2300	101
1	1415935	2350	101
1	1446767	2400	101
1	1477481	2450	101
1	1508180	2500	101
1	1538945	2550	101
1	1569627	2600	101
1	1600383	2650	101
1	1631202	2700	101
1	1661972	2750	101
1	1692685	2800	101
1	1723449	2850	101
1	1754128	2900	101
1	1784921	2950	101
1	1815663	3000	101
1	1846426	3050	101
1	1877190	3100	101
1	1907946	3150	101
1	1938595	3200	101
1	1969413	3250	101
1	2000182	3300	101
1	2030952	3350	101
1	2061687	3400	101
1	2092407	3450	101
1	2123112	3500	101
1	2153899	3550	101
1	2184672	3600	101
1	2215418	3650	101
1	2246178	3700	101
1	2276845	3750	101
1	2307569	3800	101
1	2338363	3850	101
1	2369160	3900	101
1	2399900	3950	101
1	2430653	4000	101
1	2461338	4050	101
1	2492061	4100	101
1	2522854	4150	101
1	2553653	4200	101
1	2584394	4250	101
1	2615117	4300	101
1	2645845	4350	101
1	2676565	4400	101
1	2707378	4450	101
1	2738144	4500	101
1	2768894	4550	101
1	2799569	4600	101
1	2830325	4650	101
1	2861052	4700	101
1	2891869	4750	101
1	2922621	4800	101
1	2953408	4850	101
1	2984076	4900	101
1	3014792	4950	101
1	3045549	5000	101
1	3076327	5050	101
1	3107129	5100	101
1	3137871	5150	101
1	3168535	5200	101
1	3199232	5250	101
1	3230032	5300	101
1	3260844	5350	101
1	3291628	5400	101
1	3322361	5450	101
1	3353022	5500	101
1	3383742	5550	101
1	3414520	5600	101
1	3445337	5650	101
1	3476090	5700	101
1	3506805	5750	101
1	3537510	5800	101
1	3568226	5850	101
1	3599029	5900	101
1	3629826	5950	101
1	3660577	6000	101
1	3691284	6050	101
1	3721972	6100	101
1	3752718	6150	101
1	3783514	6200	101
1	3814292	6250	101
1	3845080	6300	101
1	3875728	6350	101
1	3906469	6400	101
1	3937205	6450	101
1	3968020	6500	101
1	3998799	6550	101
1	4029574	6600	101
1	4060207	6650	101
1	4090957	6700	101
1	4121718	6750	101
1	4152482	6800	101
1	4183275	6850	101
1	4214043	6900	101
1	4244707	6950	101
1	4275453	7000	101
1	4306228	7050	101
1	4336959	7100	101
1	4367758	7150	101
1	4398472	7200	101
1	4429196	7250	101
1	4459959	7300	101
